/*--------------------------------*- C++ -*----------------------------------*\
| =========                 |                                                 |
| \\      /  F ield         | OpenFOAM: The Open Source CFD Toolbox           |
|  \\    /   O peration     | Version:  2112                                  |
|   \\  /    A nd           | Website:  www.openfoam.com                      |
|    \\/     M anipulation  |                                                 |
\*---------------------------------------------------------------------------*/
FoamFile
{
    version     2.0;
    format      ascii;
    arch        "LSB;label=32;scalar=64";
    class       volScalarField;
    location    "424";
    object      k;
}
// * * * * * * * * * * * * * * * * * * * * * * * * * * * * * * * * * * * * * //

dimensions      [0 2 -2 0 0 0 0];

internalField   nonuniform List<scalar> 
36000
(
0.000703486565714799
0.000683371963577326
0.000645388140666596
0.000611606573029783
0.000589753031949857
0.00057663887242735
0.000568628000979016
0.00056401617175043
0.000561920227106174
0.000561658050942195
0.000562729412749224
0.000564789330573641
0.000567596758893017
0.000570962852509211
0.000574746460877321
0.000578851055162004
0.000583203381293138
0.000587747807228065
0.000592448145278535
0.000597282108555534
0.000602230622235337
0.000607278808091975
0.000612418906923151
0.000617649330007802
0.000622968403612849
0.000628382346603698
0.000633901911060514
0.000639541614520254
0.000645318136059086
0.000651249969808781
0.000657357789390651
0.000663665869992653
0.000670201983322573
0.00067699590787547
0.00068408077231522
0.000691495204575825
0.000699284062266708
0.000707498604874726
0.000716197967263598
0.000725451416587531
0.000735340452127971
0.000745961419036505
0.000757429300955805
0.000769883908313895
0.000783494448939637
0.000798478189018229
0.00081511012186937
0.000833731020490357
0.000854787607660545
0.000878902475309627
0.000906880164653153
0.000939984797786865
0.00097977623382579
0.00102958523263238
0.00109277881679833
0.00118182791169288
0.00130620586370427
0.00152560047293423
0.00151143905045057
0.00117942309362246
0.000726393559964584
0.00035581786956147
0.000132237807902083
4.40516671952276e-05
6.60065130637806e-05
8.11501387922708e-05
8.02493988335518e-05
7.00486153776298e-05
5.51596211109622e-05
4.06098203806433e-05
2.88620626944351e-05
2.04379661471202e-05
1.43808638305602e-05
9.76898782280415e-06
6.91236281819193e-06
6.73563102863104e-06
8.06432283048954e-06
9.05914660928433e-06
1.27052670014862e-05
2.34932835797313e-05
3.2595426048982e-05
2.79462946356213e-05
2.10923505868837e-05
7.01266173292543e-05
0.00012876778653924
0.000184493146335555
0.000236152508997718
0.000279666656109484
0.000317542022605057
0.000347731505535985
0.000370666138274275
0.000384895544765244
0.000391060765927648
0.000389446680730984
0.000381011325484641
0.000366626061184001
0.000347586230164664
0.000325131904789119
0.000300434198416324
0.000274564748203674
0.000248467232461901
0.000222952518725722
0.000198651996844774
0.000175989230998462
0.000155234323279107
0.000136587502453929
0.000135843524921448
0.000147594885484866
0.000159751433054514
0.000172217147318184
0.000184871281846901
0.000197604538137147
0.000210343567052787
0.000223016860732717
0.000235522106275272
0.000247785524268804
0.000259749361599122
0.000271359829135593
0.000282562130331573
0.000293328179141107
0.000303642116470406
0.000313480144843036
0.000322833579057715
0.000331705635543898
0.000340102655851855
0.000348028690595097
0.000355497290144659
0.000362528647364115
0.000369140150218223
0.000375347986591264
0.000381172546571535
0.000386638266625975
0.000391765705858208
0.000396573809814385
0.000401081796441902
0.000405311396494994
0.00040928322876819
0.000413014409031255
0.00041652097339624
0.000419819431279887
0.000422927340137284
0.000425860143678338
0.000428630723592647
0.000431251351287039
0.000433734132241289
0.000436091673259714
0.000438335845591313
0.00044047610962142
0.000442521042946041
0.000444479046191783
0.000446358576123478
0.000448168401906821
0.000449916270324497
0.000451608512303151
0.000453250870731645
0.000454849175065173
0.000456409253213859
0.000457937180814213
0.000459438895775049
0.000460919226344497
0.000462382392602242
0.000463832635208655
0.000465274390215012
0.00046671236354858
0.000468151468748653
0.000469597038649443
0.000471053216983084
0.000472526082218886
0.000474017979385197
0.000475542398236044
0.000477090735901567
0.000478711516318365
0.000480328464137542
0.000482169817448779
0.000483773749292959
0.000486322135958864
0.000487249339641962
0.000492699239497616
0.000489396134707461
0.000503135652239919
0.00187902374972277
0.0018066100434344
0.00174992571922059
0.00171959074781681
0.001707825727358
0.00170766062712909
0.00171522713574035
0.00172815743125117
0.00174474432510503
0.00176375429682585
0.00178422711526722
0.00180482513561581
0.00182614034152016
0.00184778549922948
0.00186942755067252
0.00189086990666106
0.00191199832153702
0.00193275081731742
0.00195310153162787
0.00197304175798367
0.00199256944731728
0.00201169743561138
0.00203045265623032
0.00204886679349145
0.00206694842479621
0.00208474944319606
0.00210233184520303
0.00211975705269069
0.00213708308175619
0.00215436668051968
0.00217166526388976
0.00218903871940794
0.00220654879376335
0.0022242588878463
0.00224223722119219
0.00226055826560172
0.00227930275514147
0.00229855863945718
0.00231842340155135
0.00233900615020686
0.00236042959794048
0.00238283315685907
0.00240637743465154
0.00243124959791924
0.00245766942358739
0.00248590781467353
0.00251626530403958
0.00254908650367033
0.00258482697707345
0.00262409135472024
0.00266767563278172
0.00271661402262205
0.00277232161383541
0.00283717938107895
0.00291459707598486
0.00301142528669618
0.00314029606943105
0.00325300159680767
0.00305417516437543
0.00274560452619943
0.00240155182753336
0.00199440948165472
0.00154921889144197
0.00114765433559501
0.000845931663261263
0.000608783814753828
0.00045408754185039
0.000331734628234277
0.000236510027110348
0.000160082004551181
9.99462220160326e-05
6.23550144141316e-05
4.20097071633286e-05
3.10842359696058e-05
2.52354049185261e-05
2.5745049021582e-05
3.42463776560875e-05
4.77605389040927e-05
6.81879152587068e-05
0.00010823356672971
0.000173425875777189
0.000248216554960419
0.00022711687515571
0.000383193732543855
0.000609474960525291
0.000829916268785576
0.00104749303078241
0.00124962752615921
0.00144589794827813
0.00163184280930035
0.00181038704388881
0.00196604905105126
0.00210091942948211
0.00221959168681831
0.00232190986896862
0.00240706260171337
0.00247554461271521
0.00252807442764126
0.00256538363393932
0.00258838333204716
0.00259819644918863
0.00259635144956019
0.00258461403732773
0.00256472087991589
0.0025383043104544
0.00250769851144561
0.00247519399810927
0.00244118625716585
0.00240568460956172
0.00236926619704045
0.00233223987129961
0.00229502447355205
0.00225816934757502
0.00222206512884186
0.00218686365290835
0.00215276293792308
0.00211992934078093
0.0020884507045479
0.0020583556120793
0.00202970568252082
0.00200252725371963
0.00197678397243772
0.00195245976515717
0.00192953402864939
0.00190796451925225
0.00188769426824613
0.00186868211409144
0.0018508851518775
0.00183424568676031
0.00181870635494711
0.00180421886652905
0.00179073691230455
0.001778205575824
0.00176657280121218
0.00175579096634663
0.00174581770135514
0.00173660882761971
0.00172811869587854
0.00172030566928434
0.0017131322780943
0.0017065641688372
0.00170056557998372
0.00169510159277541
0.00169014069546588
0.00168565382471437
0.00168161485577172
0.00167799817057265
0.00167477772408547
0.00167193006768999
0.00166943382431144
0.00166726958843354
0.00166541989470776
0.00166386726262247
0.00166259473018249
0.0016615870511324
0.00166083065105036
0.00166031318028468
0.00166002387447791
0.00165995262844762
0.0016600892050617
0.00166042449234826
0.00166095071011829
0.00166166115485105
0.00166255021711584
0.00166361342051514
0.00166484706208599
0.00166624750028248
0.00166781312453448
0.00166954206638677
0.0016714383358909
0.00167349859525521
0.00167574458025726
0.00167815128222988
0.00168081881988244
0.00168357904596903
0.00168694402097809
0.00168985383046131
0.00169532783588795
0.00169287056162193
0.00171182652534328
0.00315326801401274
0.00314668445452034
0.0031564748500415
0.00318562506653704
0.00322855887340909
0.00327908537905599
0.00333299662369197
0.0033878247166906
0.00344207349414803
0.00349482545894038
0.00354555964070198
0.0035938435732876
0.00363895906829554
0.00368112173645548
0.00372099194911994
0.00375871867735437
0.00379443153515644
0.0038282532473899
0.00386030907153678
0.00389071876623642
0.00391959448395631
0.0039470543619711
0.00397321962051103
0.00399820595252944
0.00402205204321141
0.00404489746819992
0.00406687116024821
0.00408808267287215
0.00410862847271604
0.00412859588328587
0.00414806584563128
0.00416711507442046
0.00418581666103082
0.00420424076746126
0.00422245678658757
0.0042405343907275
0.00425854345863502
0.00427655436995243
0.00429463910355951
0.00431287225934887
0.00433133192559874
0.00435010092589044
0.00436926871366775
0.00438893294921283
0.00440920184905913
0.00443019805589329
0.00445197815034493
0.00447461080398808
0.00449823484713145
0.00452304238283881
0.00454927638936921
0.00457702407990441
0.00460664878711701
0.00463864746021883
0.00467420873260843
0.00471388098936729
0.0047628957397361
0.00476754366362387
0.00456514783900793
0.00426828500943182
0.0040332864862172
0.00388324203206689
0.00383737510543335
0.0037985835991568
0.00354410702451797
0.00291662774187008
0.00219067985981141
0.00161551418176335
0.00116752625756891
0.00082009524938836
0.000539314680852603
0.000349833605848008
0.000241662156835652
0.000183068913297009
0.000154745565118484
0.000161153372405232
0.000208346224739863
0.000280704640841683
0.0003789328758851
0.000547362031300517
0.000782841504734124
0.000976981018312649
0.000994330476010135
0.00141234455683293
0.00197856802968673
0.00247183092124753
0.00292546166643796
0.00333376506935723
0.00371840308825976
0.00407462053854073
0.00439109879546462
0.00467716216098834
0.00493352136257161
0.00516028335060166
0.00535671682953462
0.00552173284151211
0.00565594566351799
0.00576039761167493
0.00583619944518724
0.00588476380136304
0.00590790059514082
0.00590805568433783
0.00588801095123747
0.00585079604747324
0.00580051167769164
0.00573949319423604
0.0056697679553376
0.00559311419089579
0.00551134460028578
0.00542578044998446
0.0053373219413572
0.0052469503243937
0.00515579398229153
0.00506475992959518
0.00497441177961559
0.00488529163412292
0.00479789245228906
0.0047125805445992
0.00462960436829015
0.00454920680530469
0.00447157363102832
0.00439679132360291
0.00432492687161938
0.00425602538392614
0.00419009293539002
0.00412709932100755
0.0040670112056466
0.00400978443621907
0.00395535076954019
0.00390362980755373
0.00385454141633004
0.00380800312960378
0.00376392085541254
0.00372219783442498
0.00368273853570218
0.00364545097233765
0.00361024139902908
0.00357701403179748
0.00354567597070105
0.00351613863954292
0.00348831737437177
0.00346212772567095
0.00343748690024571
0.00341431621872459
0.00339254086851838
0.00337209027293363
0.00335289619724917
0.00333489182115394
0.00331801398763157
0.00330220315322098
0.00328740324859286
0.00327356152327792
0.00326062705094601
0.00324855091621297
0.0032372871519499
0.0032267927778341
0.00321702737822179
0.00320795320555103
0.00319953447489763
0.00319173672442759
0.00318452760165717
0.00317787708857424
0.00317175726075694
0.00316614211738175
0.00316100758298794
0.00315633101028924
0.00315209107296711
0.003148267951879
0.00314484423128303
0.00314180310047322
0.00313913268220131
0.0031368159767921
0.00313485579732467
0.00313321759252552
0.00313196330041243
0.00313096464231256
0.00313047624289899
0.00313036584413247
0.00312875975866366
0.00313544844905472
0.00346317111270107
0.0034798897262913
0.00351425084512238
0.00356505991991648
0.0036285498511273
0.00369994653248649
0.00377517871650489
0.00385149945013087
0.00392689559566563
0.00400002063894687
0.0040701143157598
0.00413670283244413
0.00419936434596815
0.00425797762267699
0.00431244744414021
0.00436309810511179
0.00441038805146341
0.0044545639087911
0.00449586002075259
0.004534491521447
0.00457065697203509
0.00460456132472555
0.00463639878382895
0.00466634998588
0.00469456781683778
0.00472120645641415
0.00474641617628154
0.00477033671298766
0.00479309479833352
0.00481480493486086
0.00483557158971372
0.00485549141928296
0.00487465432416503
0.0048931440755335
0.00491103952274108
0.00492841528385975
0.00494534178709463
0.00496188550999537
0.0049781098005837
0.00499407572656472
0.00500984268077176
0.00502546890174318
0.00504101224210481
0.00505653023307871
0.00507208167702435
0.00508771116331334
0.00510330933709126
0.00511884917020136
0.00513437870227802
0.00514992436857548
0.00516545581715136
0.00518066264597786
0.00519557165142176
0.00521010450466248
0.00522444551978941
0.00523732600146115
0.00524961806879793
0.00521014001399682
0.00503448951053524
0.00477283807900842
0.00453506057355109
0.00441792038312798
0.0044841914491094
0.00478734951426005
0.00511889337973746
0.00503756886989345
0.00438315288006218
0.00335468385472761
0.00248216754469364
0.0018068037021118
0.00124412748415506
0.000842485733528811
0.000601774978435661
0.000469208266092704
0.00040865522257057
0.000422981641709342
0.000513645861759925
0.000645684519804735
0.000819381502135735
0.0010917717762805
0.00143166635331026
0.00171459249960939
0.00185936967775536
0.00252176565474132
0.0033088777009894
0.00396178828121885
0.00454593589772761
0.00506837963794034
0.0055541848161532
0.00599205183072101
0.00638877700075674
0.00674837455404951
0.00707049871768758
0.00735388493047776
0.00759773926846337
0.00780118556242678
0.00796513246905234
0.00809101218022008
0.00818034282889045
0.00823496668809734
0.00825720299515438
0.00825008588405767
0.00821698874047921
0.00816268165633919
0.00809158090846342
0.00800625376436027
0.00790923759040905
0.00780282633039154
0.0076893117701989
0.00757037353159746
0.00744722280770184
0.00732111616074734
0.00719344711518198
0.00706535902341243
0.00693760800980309
0.00681088828655017
0.00668584441716955
0.0065629763885774
0.00644263774404665
0.00632515783245379
0.00621080801168256
0.00609974711795356
0.0059920931577268
0.00588793893484734
0.0057873358414014
0.00569028961247465
0.00559679312636714
0.00550682728467314
0.00542034690831843
0.00533728755916108
0.00525757960263526
0.00518115005161809
0.00510791337870327
0.00503777715540731
0.00497064663409201
0.00490642885931623
0.0048450287593867
0.00478634745017356
0.00473028613298664
0.00467674848256561
0.00462564143510294
0.00457687184243396
0.00453034677066101
0.00448597581195391
0.00444367146518067
0.00440334997104662
0.00436492991389115
0.00432833078587071
0.00429347471226846
0.0042602868780083
0.0042286956652328
0.00419863281717979
0.00417003210930688
0.00414282907378908
0.0041169617800265
0.00409237117385261
0.00406900085598246
0.00404679726741179
0.00402570919776439
0.00400568697295224
0.00398668290309398
0.00396865164885124
0.00395155017822199
0.00393533765699956
0.0039199754849779
0.00390542691471293
0.00389165671222885
0.00387863129523121
0.0038663192744341
0.00385469066007263
0.00384371891449307
0.00383337601699021
0.00382364474427616
0.00381449047080213
0.0038059247842588
0.00379787884084308
0.00379040561916032
0.0037836916974725
0.00377585417902158
0.00377403016618558
0.0035403246549298
0.0035616301723559
0.00359991900305416
0.00365040083128611
0.00371218256960654
0.00378265845627409
0.00385897826504379
0.00393882759719993
0.0040198370852542
0.00410033143838847
0.00417921471601456
0.00425556145202105
0.00432865836600021
0.00439808386541226
0.00446358808677502
0.00452512451607525
0.00458268531332244
0.00463647882067813
0.00468675973993137
0.00473375906820917
0.00477768987202764
0.00481875888777348
0.00485716775200886
0.00489311417875708
0.00492678327172083
0.00495835346890902
0.00498799399987657
0.00501586180027332
0.00504210129194676
0.00506684595791095
0.00509022013115111
0.00511234012673989
0.00513331444378067
0.00515324338116058
0.00517221905107457
0.00519032581374709
0.00520764087048208
0.00522423503050599
0.00524017366195154
0.00525551746160434
0.00527032282625751
0.00528464192613633
0.00529852289210143
0.00531200923463478
0.00532514175469585
0.00533791982119413
0.00535016490018212
0.0053618635825366
0.00537304866962987
0.0053836239059671
0.00539341094386567
0.00540171369044553
0.0054086274547381
0.00541391676355569
0.00541730164239665
0.00541671050817375
0.00541101250971454
0.00535902687435452
0.00521493335676409
0.00499721547133623
0.00476291376127967
0.00458869515263951
0.00461105366930513
0.00495106784926583
0.00564092523763111
0.00625656056770761
0.0061185596700544
0.00509234271104955
0.00381303179113741
0.00281550356585792
0.0019916153936771
0.00137589312290369
0.000995184081396351
0.000784502577697516
0.000689702281822163
0.000704849894005732
0.000821979230853473
0.00099772892033918
0.00123538099590032
0.00158398099368554
0.00199576601313476
0.00237616130631641
0.00267486787571792
0.00352112841565232
0.00442481085178888
0.00517383672334941
0.00584214560357599
0.00644259555288407
0.00699728217799788
0.00749783127967815
0.00795443102111607
0.00836799734400664
0.00873755185951691
0.00906143834612045
0.00933880241138246
0.00956893549183422
0.00975298147482129
0.0098926839183078
0.00998989681086841
0.0100468070538584
0.0100661404132676
0.0100513863868843
0.0100066807664678
0.00993817534197547
0.00984993753969982
0.00974507568716838
0.00962654948044477
0.00949701364435242
0.00935905102472815
0.00921459705102794
0.00906510106025521
0.00891203042577812
0.00875696931083781
0.00860122037463027
0.00844566905767706
0.00829111312238813
0.00813829818377711
0.0079878087897412
0.00784006126092397
0.00769543498323959
0.00755424998777566
0.00741670329782679
0.00728293601630056
0.00715306234570318
0.00702715401881807
0.00690523060050567
0.006787292222632
0.00667332697703684
0.00656329645912954
0.00645713871965518
0.00635478334368041
0.00625615679958676
0.00616117362166799
0.00606973955686448
0.00598175621874501
0.0058971265467684
0.00581575213623819
0.00573753062069238
0.00566235858347321
0.00559013434505027
0.00552075966356481
0.00545413676975829
0.00539016787379436
0.00532875714609367
0.00526981131836353
0.0052132408595315
0.0051589589782534
0.00510687983670885
0.00505691981985435
0.00500899809075895
0.00496303685231499
0.00491896176923481
0.00487670076643463
0.00483618343066065
0.00479734159726148
0.00476010979114781
0.00472442509996612
0.00469022744992307
0.00465745928112896
0.00462606460933441
0.00459598922624615
0.00456718109102482
0.00453959038702982
0.00451316947122077
0.00448787296657549
0.00446365749692288
0.00444048115815528
0.00441830371675361
0.00439708667482568
0.00437679367709721
0.00435738987286927
0.00433884336378716
0.00432112231846792
0.00430420236162391
0.00428804567354009
0.00427266931456618
0.00425790230734933
0.00424433371230059
0.00422959850398164
0.00422014369879604
0.00360768912296381
0.00362342363537892
0.00365205769038015
0.00369351315188846
0.00374623251753938
0.00380653717920173
0.00387269309672816
0.00394373384440271
0.00401778906275836
0.00409357953483318
0.00417001880727257
0.00424586501966254
0.00432023094883079
0.00439250404333645
0.00446220730837381
0.00452893025747744
0.00459238846196669
0.00465248151179385
0.00470923123799597
0.00476273826431197
0.0048131102595428
0.00486046417112933
0.00490493894554181
0.00494669182731436
0.0049858849447406
0.00502267440857583
0.00505720698962508
0.00508962319561313
0.00512006028252317
0.00514865260319933
0.00517553033611425
0.00520081799753704
0.00522463279496715
0.00524708265949575
0.0052682656753024
0.00528827124852434
0.00530718162382992
0.00532507287139614
0.00534201540323514
0.00535807416092726
0.00537330850069576
0.00538777187236226
0.00540151165770352
0.00541456834672033
0.00542697759541388
0.00543869663861455
0.00544938547722717
0.00545923691307654
0.00546828620180568
0.00547628294181605
0.00548298620256395
0.00548806429850544
0.00549134293396095
0.00549244298595958
0.00549083196352052
0.00548420084883555
0.00547038698463336
0.00541586894818981
0.00529322884167657
0.00511425650122309
0.00490610174074039
0.00470613836132655
0.00461833652873934
0.00484629908825986
0.00556327758829834
0.00663549188542096
0.00727187269249285
0.00668168646933284
0.00524245644840494
0.00386388209902179
0.00275896119752827
0.00192037951427848
0.00138860303743675
0.00109452083490132
0.000962845781094797
0.000973295420896611
0.00110755977675811
0.00131958398032816
0.00161175751499017
0.00202028284622457
0.00249265586254931
0.00296151516925774
0.00341310497275872
0.00438759253842924
0.00536836097967367
0.00619340518572037
0.00693132785438865
0.0075978150224441
0.00821061472837131
0.00876645689731106
0.00927402225074108
0.00973309359421693
0.0101422836219491
0.0104998486932918
0.0108048752798698
0.0110567850342812
0.0112569390933032
0.0114073572866565
0.0115101980545783
0.0115679543321674
0.0115837135064454
0.011561359402579
0.01150629199496
0.0114249709262411
0.0113215161112844
0.0111994989990306
0.0110622421710997
0.0109127063498114
0.0107537129737507
0.0105874090153003
0.0104154525037387
0.0102394995225086
0.0100612976253046
0.00988227598022398
0.0097034228941154
0.00952562364265212
0.00934970739307139
0.00917632437707443
0.00900593784331574
0.00883896558817395
0.00867576360327224
0.00851655411836396
0.00836149169453944
0.00821070334219032
0.00806427228345926
0.00792222345498721
0.00778455717067431
0.00765126191166447
0.00752229914735617
0.00739760312832668
0.00727709712718096
0.00716070180671243
0.00704832658861454
0.00693987073541159
0.00683522800212643
0.00673429332247131
0.00663696121428998
0.00654312244263447
0.00645266607557136
0.00636548252511468
0.00628146603464747
0.00620051209146847
0.00612251636400146
0.0060473763497934
0.0059749920534152
0.00590526744831076
0.00583810984026392
0.00577342785880284
0.00571113236615365
0.00565113701522857
0.00559335855788637
0.00553771747814875
0.00548413691830857
0.00543254186580019
0.00538285957085233
0.00533501999673138
0.00528895571597309
0.00524460225351532
0.00520189789984676
0.00516078269626784
0.00512119845394545
0.00508308912274088
0.00504640087620648
0.00501108208030913
0.00497708343229995
0.00494435777989777
0.0049128594839858
0.00488254461649002
0.00485337075768961
0.00482529801722736
0.0047982869709744
0.00477230349857778
0.00474730778595704
0.00472328088646088
0.00470015799695874
0.00467800183101924
0.00465652364728758
0.00463649707964965
0.00461540266175188
0.00459904284009484
0.0037023878061764
0.00371206931603474
0.00373093580289012
0.00376017096605882
0.00379905511361641
0.00384599781912127
0.00389957812884202
0.00395846464348886
0.00402038275603969
0.00408514002963077
0.00415201022238172
0.00421987030944528
0.0042880226094659
0.00435586435014571
0.00442279629557595
0.00448819799993936
0.00455164819801408
0.00461287294878162
0.00467169925902888
0.0047279684090212
0.00478158676918437
0.00483254565379778
0.00488088483739443
0.00492667510347554
0.00496999912794511
0.00501093258555886
0.00504955514402122
0.00508595931129875
0.00512024953205119
0.00515253672191259
0.00518293294990645
0.00521154845867245
0.00523848753907552
0.00526384588295436
0.0052877118323454
0.00531016897063042
0.00533129734324318
0.00535117315053805
0.00536986794342623
0.00538744793735732
0.00540397343268834
0.00541949824953255
0.0054340693531234
0.00544772604130908
0.00546050147581797
0.00547239209044703
0.00548317973448034
0.0054927672345934
0.00550128217633356
0.00550840442647789
0.00551391646620886
0.00551758222792047
0.00551919215775415
0.00551829616997564
0.00551420126711943
0.0055044193847956
0.00548624492169643
0.00543174357853923
0.00532401110998778
0.00517462077624724
0.00499878780547365
0.00480905100961347
0.00465880614372156
0.00472251653311635
0.00528153872314155
0.00646146462312296
0.00774006224997744
0.00795959758793154
0.00674166141236856
0.00503752345514654
0.00359660733704825
0.00250736213166766
0.00179723118606329
0.00140435982541924
0.00122787649377737
0.00122717039921201
0.00137221087061853
0.00161487603206131
0.00195331003845475
0.00241212592348533
0.00293981173790415
0.00348938292806618
0.0040752611540812
0.00514752485822963
0.00619266631012885
0.00708650153920068
0.00788830015497788
0.00861590596840564
0.00928212240295048
0.00988902182434504
0.0104428866811268
0.0109430499689403
0.0113878232287609
0.0117754872398789
0.012105071409872
0.0123761040388762
0.0125901691102846
0.0127495495717562
0.0128566975639915
0.0129143951051745
0.0129260726732847
0.012896160377156
0.0128313304850349
0.0127378678416668
0.0126201824148066
0.012482245154199
0.0123277071882921
0.0121598075417649
0.0119815831692485
0.0117953665042511
0.0116030097926116
0.0114063487317722
0.0112072803914461
0.0110073400889942
0.0108076036271105
0.010609036554139
0.0104125428028491
0.0102188273903592
0.0100283916431634
0.00984168645791627
0.00965909747025176
0.00948086492843068
0.00930715206864096
0.00913809514100726
0.0089737848929633
0.008814247477931
0.00865948025244703
0.00850946940002705
0.00836417332098518
0.00822351959203949
0.00808742281662209
0.00795579583447002
0.00782854087212304
0.00770554867104285
0.00758670323248178
0.00747188981030103
0.00736099423881648
0.00725389883803827
0.00715048367609855
0.00705062987399602
0.00695422287207639
0.00686115016614524
0.00677129973411635
0.00668456136067805
0.00660082734703977
0.00651999426512706
0.00644196265966627
0.00636663485250319
0.00629391554714732
0.00622371234311533
0.0061559360644298
0.00609050159592789
0.00602732693453046
0.0059663322126225
0.0059074399742369
0.00585057560046251
0.00579566719458998
0.00574264598733336
0.00569144627822987
0.0056420043689703
0.00559425844534638
0.00554814891452278
0.00550361848457838
0.00546061212802518
0.0054190772628414
0.0053789636370185
0.00534022263123011
0.00530280741419017
0.00526667262642304
0.00523177561496451
0.00519807381146222
0.00516553086138908
0.00513410242233291
0.00510377033666156
0.0050744572631159
0.00504624164606225
0.00501878914394374
0.00499290869162846
0.00496616351726359
0.00494368776574523
0.00382161581919042
0.00382575615743928
0.00383626722957007
0.00385504908106258
0.00388192466440009
0.0039158915621755
0.00395592711694223
0.00400117885301092
0.00405052937996008
0.00410332950348232
0.00415891129245255
0.00421589490329692
0.00427417795708228
0.00433334628594393
0.00439285016864911
0.00445209728018658
0.00451070689016413
0.00456835196486432
0.00462474548734191
0.00467955942933939
0.00473257646648642
0.00478367521617234
0.00483279128221168
0.00487988883580776
0.0049249412636496
0.00496791538807344
0.00500881226619956
0.00504766554434928
0.00508452894571284
0.00511946668897236
0.00515254787599605
0.00518384481932686
0.0052134246062441
0.00524135010166564
0.00526768549398714
0.0052924978306724
0.00531585526531143
0.00533782453501603
0.00535846905820996
0.00537784784352073
0.00539601477450897
0.00541301795957879
0.00542889916282706
0.00544369305205997
0.00545742715378239
0.00547010867560379
0.00548161221354611
0.00549184528219739
0.00550063569760856
0.00550764158995703
0.0055128288252996
0.00551608477840742
0.00551717152068267
0.00551555743927348
0.00551041655114265
0.00549913697754557
0.00547869799611011
0.00542549206694069
0.00532885891601324
0.00520131653736402
0.00505443279511623
0.00488950729569134
0.00472522183042224
0.00466909143702783
0.00501197120633211
0.00604548602155997
0.00763481381736674
0.00870917333353271
0.00814129248143078
0.00637031177041753
0.00456617575999793
0.00317153352352919
0.00224674781925884
0.00172760403295221
0.00149099468443987
0.00147037541690898
0.00161992662635899
0.0018881945347988
0.00226638339086444
0.00276924685228355
0.00334823584687594
0.00397092624599024
0.00467292352456124
0.00582727583549639
0.00693267805624064
0.00789234440659632
0.00875547275687361
0.00954160240800531
0.0102593399428009
0.0109149115150627
0.0115125199250135
0.0120513303065388
0.0125294028425111
0.0129450960394649
0.0132973843843592
0.0135858890416233
0.0138124390034013
0.0139795802506258
0.0140900605607885
0.014146946387155
0.0141540061984122
0.0141165757881801
0.0140421243314444
0.0139367978935312
0.0138053494234295
0.0136521178206147
0.0134810632806013
0.0132956869875965
0.0130992280901406
0.0128941856912422
0.0126825995572391
0.0124664820109061
0.012247870827079
0.012028391392668
0.011809196698036
0.011591329205283
0.0113757619250328
0.0111632464570036
0.0109543160257915
0.0107494516357544
0.0105490642866644
0.0103534069328594
0.0101626483007844
0.00997693197012367
0.00979635375310996
0.00962093812411513
0.00945067751260702
0.00928555441645976
0.00912552246684624
0.00897050071690306
0.0088203937333326
0.00867510562105378
0.0085345304253747
0.0083985492466939
0.00826703527693702
0.00813986330301818
0.00801690981212885
0.00789804796150211
0.00778314805894304
0.00767208122849788
0.00756472352717812
0.00746095392725043
0.00736065218783747
0.00726369985010933
0.00716998098231643
0.00707938427615346
0.0069918030787226
0.0069071329842707
0.0068252721473111
0.00674612173282768
0.00666958626668263
0.00659557469446106
0.00652399955218765
0.00645477583509069
0.0063878211424903
0.00632305606304297
0.00626040403342113
0.00619979181506153
0.00614114956631449
0.00608440972850037
0.00602950679154574
0.00597637759913856
0.00592496140584125
0.00587519982306059
0.00582703704565089
0.0057804197946503
0.00573529658285819
0.00569161780485776
0.00564933539535207
0.00560840405607988
0.00556877855423193
0.00553041996790328
0.00549328103489357
0.00545734141126811
0.00542251901137865
0.00538889068636564
0.00535611636561444
0.00532495974759485
0.00529318754061832
0.00526532043426945
0.0039544980800148
0.00395493936582939
0.00395928710164004
0.00396984589025311
0.00398689883753181
0.00401000570990567
0.00403852411604178
0.00407185058620421
0.00410914653864209
0.00414988338810632
0.00419361982569697
0.00423968564042325
0.00428768309963326
0.00433723382172006
0.00438780130659292