/*--------------------------------*- C++ -*----------------------------------*\
| =========                 |                                                 |
| \\      /  F ield         | OpenFOAM: The Open Source CFD Toolbox           |
|  \\    /   O peration     | Version:  2112                                  |
|   \\  /    A nd           | Website:  www.openfoam.com                      |
|    \\/     M anipulation  |                                                 |
\*---------------------------------------------------------------------------*/
FoamFile
{
    version     2.0;
    format      ascii;
    arch        "LSB;label=32;scalar=64";
    class       volScalarField;
    location    "424";
    object      nut;
}
// * * * * * * * * * * * * * * * * * * * * * * * * * * * * * * * * * * * * * //

dimensions      [0 2 -1 0 0 0 0];

internalField   nonuniform List<scalar> 
36000
(
3.11190896858738e-06
3.02338537923825e-06
2.85614761634874e-06
2.70733218687618e-06
2.61102242334155e-06
2.5532125053937e-06
2.51789336084291e-06
2.49755834188077e-06
2.48831619350593e-06
2.48716009726517e-06
2.49188436293102e-06
2.5009675422519e-06
2.51334640868758e-06
2.52818792801211e-06
2.54486943011156e-06
2.56296505665262e-06
2.58215162865981e-06
2.60218371259298e-06
2.62290163552732e-06
2.64420702845959e-06
2.66601570224701e-06
2.68826198256277e-06
2.71091158112814e-06
2.73395740520702e-06
2.7573919881079e-06
2.7812426327007e-06
2.805556599538e-06
2.83039771652666e-06
2.85583930711859e-06
2.88196265913175e-06
2.90885862420374e-06
2.93663387264442e-06
2.96541042068331e-06
2.9953190615239e-06
3.02650526923929e-06
3.05913864380352e-06
3.09341610456693e-06
3.12956262251868e-06
3.16783767300411e-06
3.20854512480799e-06
3.25204242305737e-06
3.2987520144032e-06
3.34917793080517e-06
3.40393286865365e-06
3.46375809925505e-06
3.52960522775836e-06
3.60267827250423e-06
3.68446847311395e-06
3.77692988771356e-06
3.88278495912917e-06
4.0055488398877e-06
4.15074349573516e-06
4.32517166201333e-06
4.54336745334712e-06
4.81996486310199e-06
5.20929283824358e-06
5.75222445573932e-06
6.70739518925282e-06
6.64088919936918e-06
5.1891315918767e-06
3.20308818554692e-06
1.57151958963966e-06
5.84314715779219e-07
1.94528878593839e-07
2.91033849927684e-07
3.5723637398678e-07
3.52703781258185e-07
3.07344868252761e-07
2.41563434950343e-07
1.7746647423714e-07
1.25820903446301e-07
8.8847625395057e-08
6.23159564810039e-08
4.21766915098653e-08
2.97189823514711e-08
2.88214504598181e-08
3.44070182352771e-08
4.19671156250341e-08
6.51319982777001e-08
1.31254773441137e-07
1.95706270626969e-07
1.82418136173726e-07
1.46536618073269e-07
4.86866233906601e-07
8.93375914897138e-07
1.27915383993035e-06
1.63633314104489e-06
1.93686007823463e-06
2.19819421721527e-06
2.40633129040221e-06
2.56435276547456e-06
2.66235201144399e-06
2.70480236194593e-06
2.6936892420654e-06
2.63560426207104e-06
2.53652244861311e-06
2.40533006403664e-06
2.25053539527516e-06
2.08018156137044e-06
1.90164001015939e-06
1.7214148601882e-06
1.54510790488214e-06
1.37709296077506e-06
1.22031520591753e-06
1.07666255660614e-06
9.47541049242253e-07
9.42388135689418e-07
1.02376945122758e-06
1.10793315578086e-06
1.19421237228547e-06
1.28176988514628e-06
1.36984862217478e-06
1.4579409661958e-06
1.545552632428e-06
1.63197705786664e-06
1.71670560851203e-06
1.79934089054405e-06
1.87951328488572e-06
1.95684656542357e-06
2.03114914720456e-06
2.10231390368702e-06
2.17017896012131e-06
2.23468669762562e-06
2.29586149106554e-06
2.35374912425245e-06
2.40837944598506e-06
2.45984763475344e-06
2.50829446319847e-06
2.55384119471405e-06
2.5966006647544e-06
2.63671450122589e-06
2.67435204359339e-06
2.70965578485335e-06
2.74275698449218e-06
2.77378866697191e-06
2.80290105032202e-06
2.83023660140683e-06
2.85591359469894e-06
2.88004280526669e-06
2.90273820297324e-06
2.92412091097898e-06
2.94429745751371e-06
2.96335670206135e-06
2.98138326996248e-06
2.99846061318734e-06
3.0146756026855e-06
3.0301100235514e-06
3.04482905756597e-06
3.05889179729348e-06
3.07235610249496e-06
3.08528020450565e-06
3.09772446929012e-06
3.10974222068101e-06
3.12137703745517e-06
3.13266844715922e-06
3.14365656511996e-06
3.15438148904949e-06
3.16488501298995e-06
3.17520797773235e-06
3.18538359043059e-06
3.19544087314056e-06
3.20540898524921e-06
3.21531842504733e-06
3.22520154148529e-06
3.23509210600953e-06
3.24502676708936e-06
3.25503399658216e-06
3.26515555774927e-06
3.27540755309034e-06
3.28588266278623e-06
3.2965217512964e-06
3.30765820486856e-06
3.31876790601145e-06
3.33141894014395e-06
3.34243832630273e-06
3.35994549223255e-06
3.36631503255251e-06
3.40375101984902e-06
3.38106217951723e-06
3.47542669576402e-06
3.18541395566839e-05
3.05583703325946e-05
2.96242680453682e-05
2.92336173961144e-05
2.91993545964746e-05
2.9362286468951e-05
2.96425775748579e-05
2.999894952265e-05
3.04032302126778e-05
3.08352644751694e-05
3.12792116501304e-05
3.17082513522008e-05
3.21413838351268e-05
3.25724216876043e-05
3.29961055127533e-05
3.34096727954274e-05
3.38117077746884e-05
3.42016448989775e-05
3.45795209628477e-05
3.49456160773949e-05
3.53002423599823e-05
3.56439284030373e-05
3.59774197824589e-05
3.63015123744222e-05
3.66165102112055e-05
3.69235079839863e-05
3.72237500902485e-05
3.75184453336878e-05
3.78087094465821e-05
3.80956059035696e-05
3.83801839015069e-05
3.8663515513445e-05
3.89466773344422e-05
3.92307400967992e-05
3.95168356511696e-05
3.98061862474065e-05
4.01000975536941e-05
4.03999690961103e-05
4.07073356183767e-05
4.10239025296561e-05
4.13515745235678e-05
4.16925036519509e-05
4.20491645548906e-05
4.24244425138469e-05
4.28217313256702e-05
4.3245274359326e-05
4.36998106742002e-05
4.41907649295376e-05
4.47254649629977e-05
4.53137948950278e-05
4.59687391840917e-05
4.67082828502576e-05
4.75569292271004e-05
4.85593791653228e-05
4.97779887211461e-05
5.13584088693481e-05
5.35690856456278e-05
5.55920459110808e-05
4.94318969252177e-05
4.1564311233829e-05
3.48382497899967e-05
2.87482523865388e-05
2.33440932497633e-05
1.93013771052917e-05
1.67839969032739e-05
1.41548042596668e-05
1.145276932055e-05
8.55808577565665e-06
6.1217130006578e-06
4.1327794818967e-06
2.56699395159843e-06
1.59431527623537e-06
1.07029347259091e-06
7.88524181182776e-07
6.34563616072308e-07
6.37632702934092e-07
8.45279735718966e-07
1.26843726675718e-06
1.93553725313275e-06
3.28584407468426e-06
5.82137887769352e-06
9.03289967836973e-06
7.64806395597269e-06
1.27913738332082e-05
2.1077696886075e-05
2.93819551699168e-05
3.79443886162194e-05
4.5993466719451e-05
5.40570730433294e-05
6.18684915675524e-05
6.96457467360363e-05
7.63476254512314e-05
8.20231734168436e-05
8.70755170062155e-05
9.14834397233047e-05
9.51942954300731e-05
9.82128503118253e-05
0.000100555015318628
0.000102239052826146
0.000103292835594394
0.000103754861573518
0.000103682629278072
0.000103145967652519
0.000102214059387896
0.000100950610096489
9.94548738366098e-05
9.7795342652308e-05
9.60052175455651e-05
9.41146902331758e-05
9.21542756052262e-05
9.0142978210097e-05
8.81046594224167e-05
8.60681032381743e-05
8.40545769944964e-05
8.20749230963359e-05
8.01419172765417e-05
7.82662499109503e-05
7.64546041701122e-05
7.47107220327596e-05
7.30393718864315e-05
7.14432191380304e-05
6.99218221551294e-05
6.84753643991423e-05
6.71035081713535e-05
6.58046885450921e-05
6.45764978494301e-05
6.34170484117953e-05
6.23242146060022e-05
6.12951122468586e-05
6.0326797918687e-05
5.94166670564708e-05
5.85621580834543e-05
5.77603154615338e-05
5.70082955899986e-05
5.63034510390089e-05
5.56433691769898e-05
5.50255741477935e-05
5.44475466518917e-05
5.39069611699332e-05
5.34016979441703e-05
5.2929795232464e-05
5.24892588392001e-05
5.20781546840955e-05
5.16947181082385e-05
5.13373172999116e-05
5.10044670197863e-05
5.06947248014501e-05
5.04066521235783e-05
5.01389371423222e-05
4.98903765846921e-05
4.96598693124927e-05
4.94464090209398e-05
4.92490033552396e-05
4.90666941897729e-05
4.88986062967061e-05
4.87439472886199e-05
4.86019879623209e-05
4.84720718787562e-05
4.83535764736237e-05
4.82458811492001e-05
4.8148416589079e-05
4.80606746054173e-05
4.79821982076524e-05
4.79125795255952e-05
4.78514575789922e-05
4.77985035902647e-05
4.77533893003848e-05
4.77158688937719e-05
4.76856751917432e-05
4.76627900158388e-05
4.76468460127204e-05
4.76385635715537e-05
4.7636522222311e-05
4.76448191050339e-05
4.76554662615025e-05
4.76904365773726e-05
4.77025101123619e-05
4.78183547904363e-05
4.76068110017178e-05
4.81997052499413e-05
0.000105239115036487
0.000102447029016928
0.000100653760583571
0.000100142297759677
0.000100748179362457
0.000102119082732114
0.000103957203009025
0.00010606469566069
0.000108312492796292
0.000110614664826511
0.000112914456223033
0.000115168755265633
0.000117329473737244
0.000119386527096932
0.000121350714983448
0.000123221382714519
0.000124999770106619
0.000126687128944659
0.000128285951759458
0.000129799460680923
0.000131230931297608
0.000132584062519053
0.000133863010270873
0.000135072296225453
0.000136206415733996
0.000137277207731908
0.00013829136520992
0.000139253863387141
0.000140169171816828
0.000141041390067838
0.000141874352447032
0.000142671736343288
0.000143437061458504
0.000144173638222605
0.000144884658158179
0.000145573289804533
0.00014624269852147
0.000146896048160778
0.00014753655722388
0.000148167572390296
0.000148792620298463
0.000149415476568521
0.000150040274890089
0.000150671671673748
0.00015131501779121
0.000151976489603062
0.000152664916677208
0.000153388377623225
0.000154157073446539
0.000154985901128511
0.000155893446010043
0.000156915384834246
0.000158086730101867
0.000159496381620346
0.000161235684983829
0.00016366745245154
0.000167124168362143
0.000172889398515456
0.000160801935889862
0.000136138843519342
0.000114809831389739
9.8796722533386e-05
9.15853132849645e-05
9.11030699157477e-05
9.54720672826529e-05
0.000101997283432046
0.000107166757980516
0.000101695363723916
8.3875598256973e-05
6.24370919433166e-05
4.1959059603341e-05
2.72426511886849e-05
1.86411709973821e-05
1.38667501261192e-05
1.13470503467145e-05
1.13094256787866e-05
1.4396207070578e-05
2.01820029565926e-05
2.79508214810441e-05
4.32058463143804e-05
6.86683372192558e-05
8.72688480466076e-05
7.59924734239518e-05
0.000113159313164509
0.000173263620756409
0.000226295690611253
0.000275990698653433
0.000319583147398421
0.000360988819071107
0.00039919270888428
0.000431145027109222
0.000459291749360981
0.000483923520788933
0.000505656424275957
0.000524453291456188
0.000540184469135598
0.000552907333578014
0.000562714821191354
0.000569697650645879
0.000573973234826734
0.000575693099721149
0.000575073162893472
0.000572366563965058
0.000567825882192135
0.000561819771160553
0.000554558987172975
0.000546145272194195
0.000536793990944709
0.00052677622897311
0.000516241197075187
0.000505290970777385
0.000494041410187121
0.000482625788619442
0.000471151580903348
0.000459688701426345
0.000448309935824762
0.000437081426607683
0.000426053444825859
0.000415262786436441
0.000404746815218283
0.000394534509730164
0.000384641637378708
0.000375082452577769
0.000365867916259771
0.000357003171808051
0.000348488248232473
0.000340322789562473
0.000332504502760794
0.00032502733478103
0.000317883432769344
0.000311064874369591
0.000304563189001799
0.000298367977935056
0.000292468317976871
0.000286853304149501
0.000281512410495855
0.000276434680490325
0.000271608696110639
0.000267023318209842
0.000262667906877342
0.000258532285836085
0.000254606184189905
0.000250879438833109
0.000247342357985395
0.000243985710487166
0.000240800801715484
0.000237779187514849
0.000234912521024841
0.000232192879516105
0.000229612772968715
0.000227165152239967
0.000224843393350206
0.000222641065977203
0.000220551948724185
0.000218570159543803
0.000216690182219184
0.000214906824502789
0.000213215237046094
0.00021161080539826
0.000210089042645559
0.0002086456952448
0.000207276782422556
0.000205978581657393
0.000204747618425338
0.000203580656126866
0.000202474643583121
0.000201426632732457
0.000200433932041342
0.00019949393845388
0.000198604611026829
0.000197763448147714
0.000196969938487652
0.00019622012586425
0.0001955195070232
0.000194853532001872
0.00019425879001651
0.000193653263612613
0.000193266685633685
0.000192435600518304
0.000192927506955467
0.000207262086376479
0.000200612655215609
0.00019546019378325
0.000192285378557881
0.000191093240066052
0.000191587097012297
0.000193357836826396
0.000196023702576065
0.00019931686400714
0.000203030871858444
0.000207004666754323
0.000211118126223814
0.000215275688585449
0.000219408801358668
0.000223452105418575
0.000227377833463548
0.000231176776437102
0.000234839332396499
0.000238360774764967
0.000241737593783705
0.000244967292977714
0.000248050357708181
0.000250989491378177
0.000253788852500374
0.000256453014982801
0.000258987182327273
0.000261397110191204
0.000263689022775731
0.000265869425932576
0.00026794496799712
0.000269922289345487
0.00027180799444261
0.000273608589610387
0.000275330359742418
0.000276979411966116
0.000278561805281056
0.000280083648854336
0.000281551144705601
0.000282970647360368
0.000284348753664681
0.000285692391940086
0.000287008956962257
0.000288306481641536
0.000289593984200514
0.000290881606203922
0.00029218152582186
0.000293524293857079
0.000294919555773829
0.000296380918747054
0.000297936013653467
0.000299628358884387
0.000301490033778828
0.000303590415518262
0.000306103744811844
0.000309211388616342
0.000313601326023252
0.000319934339662785
0.000326957502028516
0.000307095562071197
0.000266876441261393
0.000223215749892452
0.000187333912292657
0.000154806854866119
0.000141343817660155
0.000144760382603105
0.00016555982109855
0.000222464691486017
0.000260729878081086
0.000268428383411336
0.000239753178733538
0.000186531299265247
0.000134990679315623
9.8109482679829e-05
7.4683030688458e-05
6.13112933970811e-05
5.8891787295532e-05
6.90043930290152e-05
8.73846948377114e-05
0.00011167337604906
0.000158280273937893
0.000223305796458444
0.000261203543474745
0.000244070964260318
0.000352990786386509
0.000504455799719569
0.000624414535608528
0.000729505192787359
0.000818574656092093
0.000900340374893884
0.000969698955663573
0.00102907415524351
0.00108150716438773
0.00112751580520982
0.00116764771042701
0.00120193066940017
0.00123024131460918
0.00125277115743923
0.00126976649680544
0.00128145115168148
0.0012880809481534
0.00128996243240082
0.00128750868890651
0.0012811804885358
0.0012715962112195
0.00125930237246556
0.00124462307094477
0.00122779316667736
0.00120918393225035
0.00118925176343967
0.00116826533150841
0.00114640771701133
0.00112388377459981
0.00110093058403044
0.00107774055472702
0.00105443968228857
0.00103115861306068
0.00100802059529958
0.000985121852807185
0.000962534404938574
0.000940332091958248
0.000918576424380743
0.000897305722632194
0.000876554647100878
0.000856353291572453
0.000836722206500045
0.000817672355799021
0.000799213435970871
0.000781352040994065
0.00076408795657851
0.000747416827329304
0.000731333470618461
0.000715831507892138
0.000700900736970752
0.000686529132676868
0.000672703907260235
0.000659412408804048
0.000646640788400587
0.000634373719316167
0.000622595600525244
0.00061129111070215
0.000600445323439293
0.000590042732090273
0.000580067478022538
0.000570504000607071
0.00056133712928473
0.000552552322808566
0.000544135220397217
0.000536071310331735
0.000528346473335096
0.00052094707021425
0.000513860028782809
0.000507072881561106
0.000500573374436367
0.000494349448953356
0.000488389467016428
0.000482682305693145
0.000477217328719285
0.000471984454977886
0.000466973994601047
0.000462176438038221
0.000457582612438615
0.000453183770364608
0.000448971597846954
0.000444938220210344
0.000441076204158338
0.000437378478268492
0.000433838170962972
0.000430448867386739
0.000427204317054652
0.000424099312832644
0.000421127864511879
0.000418287649542383
0.000415570214580504
0.000412984323049744
0.000410502677921465
0.000408190330358882
0.00040590083572483
0.000404036872776649
0.000401581810131008
0.000401144213524065
0.000326548722813152
0.00032192821517596
0.000318736084965907
0.000312518603770899
0.000307786717585685
0.000305133771408233
0.000304268479966977
0.000304916224026433
0.000306923870119133
0.000309970915814856
0.000313775263835263
0.000318167244415393
0.000322996716316962
0.000328123596836223
0.000333425522377709
0.000338808421743464
0.000344195305125431
0.000349542953429628
0.000354818416149573
0.000359993557059256
0.000365046492962741
0.000369963413947529
0.000374735735200522
0.000379357433675756
0.00038382602946607
0.00038813874786636
0.000392294362504355
0.000396294242212392
0.000400141810496866
0.000403841747804052
0.000407399390005495
0.000410820601277411
0.000414111608245984
0.00041727884869805
0.000420329124847543
0.000423269809725005
0.000426108920162746
0.000428855054016941
0.000431517334012989
0.000434105455875869
0.000436629826387666
0.000439101813082363
0.000441533988097644
0.000443940770496667
0.00044633784954798
0.000448743649989871
0.000451151609728942
0.000453611043393672
0.000456146273032173
0.000458817700554363
0.000461711310599623
0.000464240969107514
0.000466987796657619
0.000470195913067793
0.0004741481158862
0.000479338439517325
0.000486972835378117
0.000493979195865393
0.000474220068221419
0.000425930169707872
0.000362796341087059
0.000299333777856898
0.000250711693543085
0.00020269597646858
0.000189258742791501
0.000204940098963467
0.000258942353154613
0.000368160929999304
0.000437566662593897
0.000454997616034814
0.000406308131331601
0.000327580924446887
0.000256382816564327
0.000202467203328727
0.000167402353290875
0.000156559387791386
0.000173201500573587
0.000206905512283902
0.000254690731987544
0.000340865940483207
0.000446359644173997
0.000511435728207313
0.000507006126167953
0.000706497075772517
0.000948847225059286
0.00113229955462915
0.00128907426133407
0.00142093295269406
0.00153896844230729
0.00163774251395656
0.00172392239735023
0.00180005630111406
0.00186680198224833
0.00192461275543714
0.00197360942848523
0.00201372817594287
0.00204533122125963
0.00206885049189465
0.00208466925690367
0.00209319969948619
0.00209491610589581
0.00209043307196953
0.00208047737932955
0.00206605669454742
0.00204773412160301
0.00202600943957234
0.00200127402800918
0.00197403001492865
0.0019448695761161
0.00191416511914005
0.00188217333307087
0.0018491779951553
0.00181550630642766
0.00178142238237748
0.00174709862430934
0.00171271277585698
0.00167843582695305
0.0016444015832069
0.00161070977954818
0.00157746315811752
0.00154474970665668
0.00151262566640293
0.00148114123020795
0.00145034184289899
0.0014202609029309
0.00139091845947053
0.00136233260031584
0.00133451797424689
0.00130748030230081
0.00128121919181241
0.00125573292700576
0.00123101847216384
0.0012070677415646
0.00118386980052943
0.00116141236003302
0.00113968323592113
0.00111866862429704
0.00109835248130523
0.00107871800310197
0.0010597484854077
0.00104142761982933
0.00102373815434111
0.00100666206389564
0.000990181397075218
0.00097427845584771
0.000958936197941476
0.000944137654017177
0.000929865403338633
0.000916102269812431
0.000902831470620923
0.000890036779868663
0.000877702631391721
0.000865813586640289
0.000854354267652989
0.000843309654068841
0.00083266524002864
0.000822407023534095
0.000812521635303741
0.000802996135692433
0.00079381770351895
0.00078497383133962
0.000776452460732345
0.00076824201790772
0.000760331443366448
0.000752710221346324
0.000745368283066591
0.000738295778068664
0.000731483415669046
0.000724922093469744
0.000718604099506338
0.00071252069909811
0.000706668146326008
0.000701034567251864
0.000695631493410328
0.000690421973617268
0.000685494590838633
0.000680652822397849
0.000676439368126489
0.000671563248398534
0.000669320495660767
0.000465954104721013
0.000460261544124767
0.000455689158046741
0.000452944396782056
0.000451951219105955
0.000448400274600865
0.000444327836821418
0.0004418517284677
0.000440765908393245
0.000440942545307093
0.000442240308347798
0.000444699844235742
0.000448083878439629
0.000452175645516528
0.000456819419630135
0.000461931292986406
0.000467407943890292
0.000473136068909854
0.000479014408479961
0.000484974256697814
0.000490974956898408
0.000496982852752406
0.000502965416863385
0.000508892491055874
0.000514738719878715
0.000520483867104725
0.000526115531603757
0.000531626362226355
0.000537010988295393
0.000542265151010861
0.000547385839438084
0.00055237179878266
0.000557222978598185
0.000561940955526308
0.00056652964209218
0.000570994989078211
0.000575344337042346
0.000579586023193299
0.000583729306792338
0.000587784526705171
0.000591763397618641
0.00059567942760216
0.00059954820998338
0.000603388431022149
0.000607219859224029
0.000610966600064275
0.000613910416385405
0.000616863497080117
0.000619880908100586
0.00062300009693641
0.000626278131586326
0.000629816214666177
0.000633747936394681
0.000638291748946654
0.000643801946566784
0.000650875838005579
0.000660942190742979
0.00067073588981018
0.000652723477555228
0.000602087904427341
0.000527083530689508
0.000437737904306634
0.000355943991197228
0.00029404013066212
0.000243718209089458
0.000242325746960553
0.000281579672105684
0.000383428179442374
0.000536414944113677
0.000625760808558533
0.000620058645860668
0.000546955690780674
0.000458813003133814
0.0003790388936033
0.000319313346859398
0.000295848879724095
0.000316759222776943
0.000366412692174662
0.000440969343273993
0.000566628011321738
0.000709252785858081
0.000805007363463871
0.000836623538620435
0.00112521277241624
0.00144582591957636
0.00168596647962176
0.00188936488842948
0.00206038931899474
0.00221054812124069
0.00233728947039744
0.00244865344733671
0.00254687614076021
0.00263273662472667
0.00270667748962796
0.00276894882861185
0.00281960172226354
0.00285919996330247
0.00288838170297129
0.00290770608437327
0.00291774937386002
0.00291915498627007
0.00291272781373758
0.00289957942072669
0.00288086409842509
0.00285722375709395
0.00282931763871691
0.00279768611363299
0.00276294021599339
0.00272577075406345
0.00268663362224025
0.00264585076691217
0.00260377468165979
0.00256080735722908
0.00251727048101705
0.00247337482784562
0.00242933691062893
0.00238536736429759
0.00234163054602679
0.0022982484023815
0.00225534683749792
0.00221303531819787
0.00217138435270991
0.00213045587581345
0.00209030744409812
0.00205098275529005
0.00201250884270206
0.00197491001645905
0.00193820719706909
0.00190241082665352
0.00186752342927955
0.00183354575664059
0.00180047737161377
0.00176831201409255
0.00173703969442128
0.00170664856533694
0.00167712696231559
0.00164846144770411
0.00162063582136908
0.00159363272637451
0.00156743479474718
0.00154202515895141
0.00151738583742568
0.00149349779794338
0.00147034192339394
0.00144789926905679
0.00142615162223577
0.00140508082732265
0.00138466807889035
0.00136489470940667
0.00134574237969771
0.00132719330710283
0.00130923043357592
0.00129183677860371
0.00127499531219044
0.00125868929910762
0.00124290250219584
0.00122761918248164
0.00121282428333741
0.00119850319894008
0.00118464136961595
0.00117122450008
0.00115823873182868
0.0011456707003586
0.00113350758287624
0.0011217371573298
0.00111034768998061
0.00109932765422743
0.00108866612448245
0.00107835238033792
0.00106837729676416
0.00105873063879604
0.00104940795247115
0.00104039566414468
0.00103170728330823
0.00102330087569134
0.00101528017072372
0.00100742025711351
0.00100035147635307
0.00099262794115677
0.000987985458011164
0.000626694373909886
0.000620272967161458
0.000614587148738591
0.000610426632938504
0.000607898628945676
0.000606932148779358
0.000607289435288827
0.000608026804837185
0.000604483252931186
0.000601807020032068
0.000600281147155211
0.000599719650029515
0.000600064827334648
0.000601275853194022
0.000603351488193114
0.000606346251092581
0.000610073055622487
0.000614370311483622
0.000619106528970786
0.00062423759262869
0.000629714249289457
0.000635463492851913
0.000641409368679774
0.000647487399354644
0.000653647202067513
0.000659858925655094
0.00066610276535781
0.000672356430670439
0.00067859547632037
0.000684797394471062
0.000690943939337838
0.000697021202088732
0.000703018296987246
0.000708929958144453
0.000714755978462185
0.000720498080122188
0.000726158611300381
0.000731740936961455
0.000737250113463297
0.0007426933719425
0.000748080531859436
0.000753424476663922
0.000758741408322095
0.00076405199981075
0.00076937823224698
0.000774757480611782
0.000779715335711532
0.000783782800368518
0.000787943451711094
0.000792205368098773
0.000796647489043769
0.000801397136439956
0.000806632154115741
0.000812617155005799
0.00081977085877549
0.000828764193027714
0.000841187943445448
0.000853625230583724
0.000837846906505659
0.00078753382092132
0.000707521096607282
0.000601739076121208
0.00048635364562587
0.000395642021056259
0.000321880877714165
0.000287559447600847
0.000308123255131228
0.000382734172265511
0.000557631582291113
0.000727833517566248
0.00078333185238041
0.000744449025566505
0.00066485140493736
0.000576758452201936
0.000499051245752295
0.000462404964165277
0.000485823854545687
0.000551365091541618
0.000653410064667534
0.000816150980944086
0.00099414259699792
0.00112480664529847
0.00120611526814014
0.00157589543399858
0.00196269412815066
0.00225331732166562
0.00249850523862349
0.00270507925187244
0.00288348533786139
0.00303580504251187
0.0031698234347923
0.00328765692154464
0.00339022905404124
0.00347807508954291
0.00355161663442468
0.00361107189984609
0.0036572325280081
0.00369095472826638
0.00371298162165653
0.00372405328289883
0.00372497526785051
0.00371676538077382
0.00370088796526608
0.00367850424542857
0.00365037687559498
0.00361729348541002
0.00357992097521602
0.00353895617946358
0.00349515665957183
0.0034490390264846
0.00340097985571963
0.00335138870642298
0.00330072548291278
0.00324935404489307
0.00319751529681212
0.00314545698233891
0.00309342147854447
0.00304159693260023
0.00299012281865686
0.0029391436418905
0.00288878616855958
0.00283913229981111
0.00279025315418135
0.00274221629474327
0.00269507406172455
0.00264885920117359
0.00260360099541836
0.00255932564371259
0.00251604768332691
0.00247377203041847
0.00243250139601077
0.00239223758230144
0.00235297607204305
0.00231470777319556
0.00227742123241117
0.00224110528313006
0.00220574698634959
0.00217133024257669
0.00213783740102976
0.00210525068358409
0.00207355295252248
0.00204272590402744
0.00201274998411936
0.00198360540859063
0.00195527249484731
0.00192773238462432
0.00190096632389014
0.00187495478888423
0.00184967831486439
0.00182511771454439
0.00180125436527194
0.00177807045009105
0.00175554822624535
0.00173366983327126
0.00171241766392428
0.00169177460089794
0.00167172402360029
0.00165225004541184
0.00163333726717584
0.0016149702888769
0.00159713393717655
0.00157981346646343
0.00156299463153427
0.00154666374738403
0.0015308077784558
0.00151541421234927
0.00150047073775688
0.00148596566131171
0.0014718875304857
0.00145822659251411
0.00144497204279258
0.00143211919632969
0.00141965413221114
0.00140759143522193
0.00139588813600687
0.00138465505494441
0.00137365826536752
0.00136356627449836
0.00135288936362823
0.0013455688807879
0.000805849127271608
0.00079905084442083
0.000792631597833514
0.000787433533269296
0.000783647251393667
0.00078123672183062
0.000780064762764196
0.000779980342084479
0.000780911492097577
0.000782642671484635
0.000784926620480438
0.000782506067468994
0.000780478868212188
0.000779173658993812
0.000778688472866994
0.00077887241467377
0.000779703668116521
0.000781187019455281
0.000783301330851623
0.000786180834866562
0.000789718114670399
0.000793765610916747
0.000798224706854005
0.000803025893982816
0.000808131738631397
0.000813547195046637
0.00081923154543899
0.00082512518102917
0.000831173995188658
0.000837335725748234
0.000843579027202773
0.00084987781237095
0.000856216346815521
0.000862588617322243
0.000868988503462817
0.000875406437124385
0.00088183265321967
0.000888260414748639
0.000894687195071497
0.000901114729302233
0.000907549030061321
0.000914000657428661
0.000920484908551908
0.000927022683429425
0.000933640189939676
0.000940371989720405
0.000947389108743418
0.000954653966894554
0.000960988045822988
0.000966377974643617
0.000971968533995014
0.000977927243322069
0.000984467006098262
0.000991888843357302
0.00100066380184956
0.00101151324426368
0.00102613732954875
0.00104099796562274
0.00102766679693575
0.000978337198903397
0.000896937886633321
0.000782754610756385
0.000643076824109273
0.000510159116390094
0.000427729882365903
0.000349865009723464
0.000343635899530555
0.000393181623678066
0.000525301190515505
0.000771942893702146
0.000882977182855468
0.000891444574780828
0.000845643565640293
0.000772893553006381
0.000691339818524996
0.000644988615905232
0.000669942964290518
0.000751006136143669
0.000880100390099254
0.00107762377975682
0.00129051847468046
0.00145948068236192
0.00159692919588727
0.00203865000225118
0.00248135104287714
0.00281663676531066
0.00309872683578673
0.00333663403973951
0.00353969355528808
0.00371443790207447
0.0038679068638481
0.00400226340547295
0.00411861859306425
0.00421769804143321
0.00430013687169872
0.0043663648483213
0.0044174220258394
0.00445438662992585
0.0044781862145774
0.0044897178038315
0.00448993557430095
0.00448012112733953
0.0044619216441792
0.00443650087180777
0.00440473225005798
0.00436750024510911
0.00432556951274772
0.00427969858787487
0.00423068326269178
0.0041790774880098
0.00412530025110418
0.00406980541502957
0.00401309323457493
0.00395555369786827
0.00389744922322542
0.00383905145642869
0.00378062639174608
0.003722378998099
0.00366446173261317
0.00360703357630414
0.00355023457333074
0.00349415525911877
0.00343887389412314
0.00338446643696129
0.0033309925415859
0.00327848972138771
0.00322699147113421
0.00317652874113161
0.00312711988582725
0.00307877204101832
0.0030314897842376
0.00298527720356165
0.0029401317509453
0.0028960454526434
0.00285300746080764
0.00281100734344064
0.00277003300292835
0.00273006884353364
0.00269109728660885
0.00265310047895404
0.00261606136092511
0.00257996172938196
0.00254478196272792
0.00251050203767898
0.00247710193758348
0.00244456255357747
0.00241286496299796
0.00238198939791924
0.00235191606905041
0.00232262539948893