/*--------------------------------*- C++ -*----------------------------------*\
| =========                 |                                                 |
| \\      /  F ield         | OpenFOAM: The Open Source CFD Toolbox           |
|  \\    /   O peration     | Version:  2112                                  |
|   \\  /    A nd           | Website:  www.openfoam.com                      |
|    \\/     M anipulation  |                                                 |
\*---------------------------------------------------------------------------*/
FoamFile
{
    version     2.0;
    format      ascii;
    arch        "LSB;label=32;scalar=64";
    class       volScalarField;
    location    "424";
    object      omega;
}
// * * * * * * * * * * * * * * * * * * * * * * * * * * * * * * * * * * * * * //

dimensions      [0 0 -1 0 0 0 0];

internalField   nonuniform List<scalar> 
36000
(
226.06270710873
226.028731987023
225.964560435308
225.907473044701
225.870535112103
225.848366013088
225.834822801494
225.827025656467
225.823481988618
225.823038717846
225.824850109548
225.828332847974
225.83307932845
225.838770204932
225.845166780177
225.85210580983
225.8594634103
225.867145499268
225.875090874091
225.883261835019
225.891626117489
225.900158552644
225.908846008284
225.917685780855
225.926675024658
225.935824230306
225.945151548502
225.954681487332
225.964442204622
225.974464917246
225.984784520284
225.995441983725
226.006484177708
226.017961349013
226.029929393503
226.042453478365
226.0556092775
226.069483251091
226.08417513528
226.099801738318
226.116500484225
226.134433803889
226.153795529673
226.174821308507
226.197796291878
226.223086575985
226.251155450188
226.282576869419
226.318103081868
226.358782307312
226.405968546018
226.461789015074
226.528866456531
226.612802773387
226.719249587028
226.869164086264
227.078389196199
227.450512440162
227.595884387612
227.287181436828
226.779132476665
226.416439163229
226.312643394128
226.453097934133
226.800123353974
227.160907179273
227.526335406107
227.915357025001
228.344248881463
228.830941478999
229.390044928053
230.0339041842
230.773378804576
231.620534306707
232.590831558193
233.702014338995
234.380171375074
215.862979248457
195.069510186305
178.989936623273
166.552793349741
153.199101919377
143.939111358073
144.036723940702
144.136174248739
144.230616034112
144.31811168166
144.391770604508
144.455853863235
144.506912627921
144.545689370347
144.569742509927
144.580162835375
144.577434786937
144.56317701704
144.538859249781
144.506666823655
144.46869197068
144.426911571313
144.383135996734
144.338961053663
144.295759552617
144.254601906446
144.216207538067
144.181036413524
144.149430320889
144.148169715729
144.16808912191
144.188692450424
144.209816708393
144.231257099478
144.252828333272
144.274406117852
144.295869356689
144.317044862844
144.33780785721
144.358060756672
144.377712739653
144.396671320222
144.414889248685
144.432339974482
144.448983518628
144.464805469478
144.479811536867
144.494012699791
144.507416044962
144.520044706058
144.531933025851
144.543110582706
144.553604905884
144.56345061034
144.572689131259
144.581355332338
144.589481334531
144.597099706141
144.60424724891
144.610958873455
144.617263560732
144.623188459058
144.628761508658
144.63401241356
144.638967299844
144.643647959925
144.648075150857
144.652269345714
144.656251860479
144.660042765565
144.663658055581
144.667112232471
144.670419496892
144.673594142804
144.676650990049
144.679603129924
144.682461261182
144.685235088528
144.687934462019
144.690569228324
144.693149651458
144.69568576203
144.698185715897
144.700656641411
144.703105701375
144.705540387703
144.707968647952
144.710398779377
144.712839786727
144.715298665912
144.717785680204
144.720304787098
144.722878763057
144.725493078863
144.728229662227
144.730959723788
144.734068609199
144.736776587914
144.741079009506
144.742644384208
144.751844839541
144.746268693982
144.769461791025
58.9883693571155
59.1199734727808
59.070682068521
58.8223730411608
58.4884752063729
58.1582987052062
57.8636298212868
57.6072648792707
57.3868076812933
57.1992595765196
57.0419464283327
56.9197309422283
56.815859294907
56.72852687931
56.6560059625815
56.5964808526906
56.5484102216318
56.5104638395681
56.4814513690426
56.4603512387341
56.4463390080328
56.4387127272975
56.4368614677667
56.4402599087046
56.4485368177898
56.4613049253124
56.4782387617034
56.4990642292781
56.5235659465066
56.5515793599129
56.5829822353847
56.6176844070662
56.6556364953886
56.6968372852027
56.74131504317
56.7891194487139
56.8403294303581
56.8950593498966
56.953454858508
57.0156909990706
57.0819763246301
57.1525561705521
57.2277109456069
57.3077559504925
57.3930419789939
57.4839182200132
57.580691202517
57.6836926840906
57.7931829040107
57.9093267469456
58.0323863593134
58.1612908214001
58.2947986527187
58.4270110089264
58.5519252758944
58.6354864372262
58.6214237481082
58.515594155517
61.785514098233
66.0567791140201
68.9343420524797
69.3749816454441
66.3644920737145
59.4597126067428
50.4010855183283
43.0089885798362
39.6487110794773
38.7627136406942
38.6346153576513
38.7347075382093
38.9351217418325
39.1108429703876
39.2506431545676
39.420777081281
39.7681245494707
40.3759858977043
40.514845215068
37.653055579323
35.2294512277363
32.9393496068769
29.7912022943096
27.4791665797862
29.6959958053626
29.9571990890477
28.9156336111817
28.2457809218667
27.6060062892846
27.1696746362182
26.747618153857
26.3759915258091
25.9942226012787
25.7512796165103
25.6137301443482
25.4904221431138
25.3806577014521
25.2857862000936
25.2059135322452
25.1412067277855
25.0920129150813
25.0586917974748
25.0416839248311
25.0413349626473
25.0578291730689
25.0916644468931
25.1440214975251
25.2144355998621
25.3099373751298
25.4276415342452
25.5612020142813
25.7097804901641
25.8726738078682
26.0488433710252
26.2370060755962
26.4359801487948
26.6447237524854
26.8618846551256
27.086123880893
27.316218914705
27.5510068176926
27.789199579602
28.0296335730713
28.271345218264
28.513316902942
28.7545924383296
28.9943552873871
29.2319083739656
29.4665576669108
29.6976891498484
29.9248279271129
30.1475698643661
30.3655347213313
30.5783968847707
30.7859394744514
30.9879953948686
31.1844289105859
31.3751256830272
31.5600310313045
31.7391471635481
31.9124957509912
32.0801087614354
32.2420323249333
32.3983538268919
32.5491869490737
32.6946496144357
32.834863864561
32.9699525164996
33.1000548310434
33.2253314498956
33.3459415572397
33.4620409504721
33.5737812345414
33.6813112960839
33.7847905392273
33.8843844615281
33.9802537734972
34.0725514332343
34.1614252810369
34.2470170994578
34.3294694933912
34.4089311982485
34.4855471887912
34.5594547674343
34.630784268363
34.6996599552252
34.766201588925
34.8305268373522
34.8927589160473
34.9530075255986
35.0113961828908
35.0679919353328
35.1229668970835
35.1762197392931
35.2282493335314
35.2781026658333
35.3281413034683
35.3727946742783
35.4248408832347
35.4534956988319
35.5594194612373
35.5152903211036
28.6454851530406
29.1837857850838
29.6085576882922
29.8737667409442
29.999721115737
30.0235611175331
29.9785759252596
29.8894882426433
29.7740353876456
29.6446501796018
29.5097079062899
29.3755206776217
29.2497565195088
29.1318608330413
29.0187472855399
28.9121300801285
28.8126275976359
28.720443661986
28.6354676003208
28.5574597450539
28.4861576026227
28.4212374898939
28.3623555320727
28.3091558839468
28.2613213232453
28.2185510498393
28.1805277051645
28.1469348297098
28.1174795013637
28.0918926399724
28.0699263684737
28.0513478187238
28.0359442413917
28.0235305897891
28.0139399483093
28.0070154155293
28.0026091634928
28.0005818675073
28.000796938872
28.0031147473342
28.0073892734251
28.0134629475525
28.0211570536448
28.0302579492702
28.0405013519282
28.0515327460019
28.0626118835413
28.0729280001407
28.0815216276222
28.0870496611629
28.0877599546337
28.0801341799183
28.0599046955103
28.017623952682
27.9420988963596
27.795443845127
27.5250068016388
27.0760693151698
28.3898810903292
31.3524406340751
35.1247359575819
38.9956373791655
41.7539949518648
41.5255932931949
36.8332772620381
28.5951512013871
20.4417853175114
15.8858193983078
13.9197368702148
13.1347444902284
12.8533548165999
12.8413935716106
12.9638935702907
13.2020056344841
13.6375146306891
14.2494744633684
14.4722998021936
13.908661169331
13.5571284064795
12.6687029185292
11.4003270857504
11.1950717831278
13.0845915550465
12.4810280067685
11.4194083042302
10.9230136666359
10.5998560122184
10.4316047216378
10.3006045944246
10.2071517035696
10.1847371983076
10.18342299311
10.1948368918472
10.2051177496471
10.2139063989116
10.2219392763142
10.2294639988166
10.2367973878479
10.2443803982176
10.2526798190154
10.2622397211335
10.2735722435934
10.2871329702567
10.3038558666713
10.3245061413725
10.3496531964882
10.3814282462956
10.4194798847364
10.462401864696
10.5101655596739
10.56286822847
10.6204666576561
10.6827983582057
10.7497462279218
10.8212617890776
10.8971299624118
10.9771135541652
11.0610079599882
11.1486136478034
11.2396358272795
11.3337959563704
11.4308772018718
11.5306030497992
11.6326827108401
11.7368507236762
11.8428651236882
11.9504521306823
12.0593387545904
12.169286537715
12.2800668583009
12.391439001725
12.5031627823587
12.6150295399053
12.7268411846214
12.8384037500325
12.9495213582824
13.0600161767888
13.169733086677
13.2785256151849
13.3862514128338
13.4927727231075
13.5979718508668
13.7017482031774
13.8040093356198
13.9046703257519
14.003650523215
14.1008817142155
14.1963136175329
14.2899041286123
14.3816178452359
14.4714240550426
14.5592960260085
14.6452184669287
14.7291870917699
14.8112036826378
14.8912735445032
14.9694053954068
15.045609544582
15.119901220904
15.1923045782657
15.2628483320532
15.3315631950317
15.3984809257138
15.4636334318892
15.5270527324466
15.5887717811613
15.6488297014519
15.7072603416753
15.7641092037996
15.8193864897165
15.8731692413485
15.9253538934762
15.9762194806329
16.0250894666676
16.0734232951053
16.1174927633723
16.1653678564449
16.197131098247
16.2587366902834
16.2519513082107
16.5788177307112
16.9629040755903
17.3298840768235
17.6464087577726
17.9016914864515
18.0953521107785
18.2323844902064
18.3206746251692
18.3682786795309
18.3832030754054
18.3728786755522
18.3436866804689
18.3013149378116
18.2498056697337
18.1946917111023
18.136893439792
18.0758652416893
18.0138007541955
17.951916932539
17.8911984089482
17.8323933678029
17.7757606685901
17.7215008863476
17.6697490888114
17.6205533566276
17.5739570993924
17.5299721751067
17.4885701475257
17.4496921044993
17.4132548680892
17.3791581891339
17.3472885265177
17.3175268718516
17.2897558376639
17.2638559168318
17.2397016776703
17.2171610137741
17.1960943899065
17.176351588255
17.1577684102005
17.1401638170384
17.1233349340615
17.1070487474272
17.0910301025351
17.0749502688473
17.0583985243341
17.0407055566718
17.0210812235457
16.9986179122362
16.9720278928615
16.9395195174824
16.8991339495892
16.8471021417217
16.7765216883629
16.6780306201432
16.5280910746137
16.2869911897407
15.9352208824449
16.3938855924204
17.8840742047127
20.3169381001839
23.5831320077607
27.1622593155303
29.9968753657681
30.2069576573311
26.5410155845342
19.5665141025605
12.8665110397678
9.24703830924616
7.53609904842966
6.66980549138788
6.24106595951702
6.13370860795889
6.28266236342251
6.66525202663601
7.18235362066237
7.44366900733327
7.38898866676692
7.33730394051816
6.89771219822946
6.4112368600189
6.56420076389648
7.61815189033391
7.14399851779728
6.55930153410632
6.34480470150788
6.23153329499696
6.19171336446817
6.16898338787464
6.17929079507011
6.2082766030063
6.2397871935226
6.27086439499782
6.29803395733841
6.32127914021451
6.34118320510562
6.35801073624154
6.37204730206378
6.3836556065024
6.39320587724166
6.40111896885744
6.40779045232271
6.41360746124852
6.41924030939895
6.42544720424934
6.43267343444218
6.44183222799074
6.45296891753274
6.46567195154635
6.48001214058364
6.49613806431506
6.51412212384172
6.53396973390202
6.55571416740646
6.57942614104356
6.60508305927263
6.63264664268348
6.66209603398368
6.69341034563621
6.72651490526246
6.76134053393497
6.79784711509507
6.83596074419899
6.8755956131561
6.91667532717872
6.95913170124745
7.00287667157178
7.04781839139647
7.09387821343247
7.14097858651707
7.18903183548967
7.23794635259167
7.2876416149587
7.33803842491629
7.38905569069205
7.44060741625236
7.49261235340643
7.54499643417302
7.59768640992002
7.65060770668452
7.70368467291528
7.75684809508633
7.81003407759569
7.86318028827212
7.91622579971311
7.96910951105019
8.02177427644689
8.07416980250675
8.12624845428916
8.17796494422392
8.22927534420101
8.28013678083832
8.33051121426949
8.38036551382901
8.42966947091842
8.47839484808925
8.52651530258235
8.5740054036343
8.62084236875696
8.66700818837715
8.71248774477591
8.75726782020079
8.80133664840196
8.84468332511228
8.88729758717771
8.92917029245211
8.97029577547477
9.01066674603754
9.05028137611139
9.0891226263169
9.12720158982653
9.16444944330539
9.20095957342835
9.23640501080878
9.27137626368159
9.30418620525372
9.33825527210773
9.36471879774231
9.4024532082013
9.40816304697657
10.8416429390096
11.0634296854321
11.2943565942313
11.5133162917325
11.7134274279822
11.8946201825043
12.0554784638472
12.193862695318
12.3088444690123
12.4010364075054
12.4721771575895
12.5241344438257
12.5592137512331
12.5798626998423
12.5888389913296
12.5882162977239
12.5811951898442
12.5679181634226
12.5489720419834
12.5258997528967
12.4999301788592
12.4717993532751
12.442140112284
12.411490643865
12.3802856224732
12.3488888032447
12.3175949726909
12.2866292787386
12.256159898637
12.2263088206224
12.1971610129345
12.1687694379656
12.1411625126619
12.114349519358
12.0883185329266
12.0630356827551
12.0384474285753
12.0144826477156
11.9910523236364
11.9680483578624
11.9453418397344
11.9227793591737
11.900176930849
11.8773110447488
11.8539132718455
11.8296989813457
11.8047097376027
11.778192458071
11.7493174748788
11.7169835111243
11.6797303986191
11.6355816265637
11.5819460239633
11.5141723122019
11.4253362206692
11.3003883302749
11.1115284398011
10.8486894169017
10.996863494881
11.7324759473216
13.1283401233
15.3296937802764
18.2805919680094
21.6747213216112
24.3442012394022
24.216893062494
20.1069607287708
13.8318390032836
8.71417344395878
6.18795234663931
4.90173649035756
4.20016252541826
3.8816333119839
3.87471434780375
4.12002739665045
4.5021247460736
4.74579739858688
4.82214760412067
4.85051413633982
4.64693243167714
4.47120621047181
4.64606044369512
5.27580977361175
4.98392496784527
4.66335436825713
4.56931798851051
4.53204736050654
4.53406020366339
4.54673532324498
4.57815023777115
4.61414680460241
4.64874200814034
4.68049206214878
4.70818782662713
4.73183917577355
4.75185062519862
4.76841177284471
4.78172973690722
4.79207758150866
4.79973652601067
4.80503270987224
4.80827945255106
4.80980032077661
4.81021424446073
4.81016428636208
4.80998533216382
4.81021056872508
4.81097732685472
4.81217411165336
4.81389873783075
4.81629449369841
4.81945515744127
4.82343095137396
4.8282880352896
4.83411121739952
4.84092443243412
4.84873955446422
4.85757790026172
4.86745741565136
4.87836114817604
4.89027442777474
4.90319810284849
4.91711112199478
4.93198371178853
4.94779093356479
4.9645114373809
4.98211099188148
5.00055233860961
5.01980522963132
5.03983921012056
5.06061695685015
5.08209823089813
5.10424842741789
5.1270330184536
5.15041549805353
5.17435578667799
5.19881581544559
5.22376078567617
5.24915554129114
5.27496327857421
5.30114581027682
5.32766776995691
5.35449588011212
5.3815969092468
5.40893754422427
5.4364835436629
5.46420212805064
5.4920634947519
5.52003852243455
5.54809868038163
5.57621546049743
5.6043602847984
5.6325066292367
5.6606300381061
5.68870707706835
5.71671490812332
5.74463126502015
5.77243392192227
5.80010173662016
5.82761582265969
5.85495852569089
5.88211297149742
5.90906287499509
5.93579222666136
5.96228513882583
5.98852620688194
6.01450162666689
6.04019670454517
6.0655989304721
6.09068843345584
6.11545724690488
6.13985982861256
6.16392189533138
6.18747483746399
6.21076071938166
6.23297305575964
6.25561544334644
6.27452202265516
6.29813872940173
6.30511649673873
7.74258470182142
7.87253178466002
8.01436160130356
8.15445157977233
8.28901960912978
8.41695780127761
8.53807911623035
8.65191780757369
8.7593644080189
8.85845163251479
8.94780647025065
9.02663273259317
9.09471494874914
9.15229006012329
9.19990348632179
9.23811519358488
9.26797393444227
9.29062492242482
9.30725918666345
9.31753165683708
9.32231247393322
9.32246835382936
9.31873891273338
9.31177481402318
9.30213937228374
9.29030780451956
9.27667605699706
9.26157723279924
9.245298032846
9.22808496487987
9.21014650582036
9.19165394709031
9.17274549604252
9.15352830856297
9.13407781351441
9.11444074916403
9.09464008120193
9.07467807203928
9.05453637276234
9.0341750563694
9.01353123453534
8.99251639028312
8.97101211368778
8.94886376063844
8.92587735019421
8.9017904383683
8.87651574526488
8.84999183598557
8.82151092306002
8.79017991930589
8.7548741142787
8.71375517287101
8.66486913582799
8.6049098942976
8.52875949319754
8.42587868316067
8.27664969985345
8.07451789961996
8.1094506689147
8.49420236416703
9.30801562766046
10.751041468024
12.9748967336277
15.9278269950892
19.2337953284845
21.3148314417361
20.0714955887735
15.4018524076798
9.77313646074327
6.17469494122269
4.44951653516372
3.51103306291138
3.02651195138808
2.88762143772727
3.01536340577322
3.28983980539083
3.49653521387139
3.6013599105872
3.6550330302411
3.56544824092261
3.51448159563251
3.67886718018903
4.07961862797552
3.89934476926306
3.71300646017375
3.6735043434018
3.66860202432907
3.68756280786346
3.71428907132907
3.75069370240237
3.78739680816329
3.82158104921103
3.85237305041937
3.87923893168927
3.90215780379249
3.92139958880608
3.93709402552633
3.94939397203691
3.95851496698272
3.96468402522992
3.96817351628404
3.96925498773043
3.96826240133691
3.96581391412628
3.96241844313914
3.95837457264415
3.9540683699983
3.94967154433627
3.94520080521062
3.94077142772896
3.93652303976841
3.93255975435683
3.92895529486115
3.92579027750378
3.92315098579998
3.92107969914558
3.91960900153616
3.9187754843071
3.91860942184646
3.91911587220876
3.9203005627299
3.92217716211099
3.92474295734797
3.92798837576397
3.93190643005616
3.93649125255547
3.94172752469591
3.94759751343124
3.95408764603618
3.96118357196756
3.96886584413034
3.97711291439019
3.98590663437387
3.99522863967926
4.00505888614331
4.01537478902214
4.02615494801749
4.03737987051711
4.04902959683257
4.06108282554836
4.0735172173967
4.08631208920991
4.09944786824091
4.11290479688864
4.12666280114052
4.14070099997719
4.15499929024604
4.16953921796882
4.18430251563969
4.1992710495585
4.2144264350581
4.22975003951253
4.24522432643243
4.26083281550824
4.27655941356509
4.29238816987334
4.308303251894
4.3242886257879
4.34032875710899
4.35640931393516
4.37251650182835
4.38863680090844
4.4047568595644
4.42086330608715
4.43694264719505
4.45298155209751
4.46896743213323
4.48488706196418
4.50072800522655
4.5164737512131
4.53211307498467
4.54761514560657
4.56298305497056
4.57812110360937
4.5931339536706
4.60759696280154
4.62222554530478
4.6348680331364
4.64968037910889
4.65497017471575
5.90780444234333
5.98457374826797
6.07063751747441
6.15990647059075
6.24948787959169
6.33678381818497
6.4212843205273
6.50323620135853
6.58254051296812
6.65909250178994
6.73223529984625
6.80254312720815
6.86889246163805
6.93045357619916
6.98668587182092
7.03732669183749
7.0823554344941
7.12192741254162
7.15634455968344
7.18624966590795
7.21102492403988
7.2310786111645
7.24685180749573
7.25877926128199
7.2672623051308
7.27264632245682
7.2752509507052
7.27538178814999
7.27332858400424
7.26935753134659
7.26370576968269
7.25658031649939
7.24815637626556
7.23857806000052
7.22796220498431
7.21640336710368
7.20397674873199
7.19073840823562
7.1767236886889
7.16194574630956
7.14639437442847
7.13003416327206
7.11280150100968
7.09460019890956
7.07529794547532
7.05467893813811
7.03228407002748
7.00802216125541
6.98182358694269
6.95325309357295
6.92140067224378
6.88495376016841
6.8422664898655
6.79076996588419
6.72651535254145
6.64171960022353
6.52202039323715
6.36314788261929
6.35439609390241
6.57066482578939
7.06521378577109
7.99192075178576
9.57905052346491
11.9363370971276
14.9943819945416
17.9990589228254
18.9629932809604
16.4434151997363
11.4621609261234
6.9212578612636
4.59142230220664
3.36807765952763
2.70320732229274
2.43491850021045
2.46042165855413
2.65388673200616
2.82450286822936
2.92886883271139
2.98940916903174
2.95548982946157
2.95713285677699
3.10220689275913
3.37883224077361
3.26641269920341
3.15518664946732
3.1449194798549
3.15720777088456
3.18508448964731
3.21906349967252
3.25746274410386
3.29446951729383
3.32852552139135
3.35901293016951
3.3856334140924
3.40832715235687
3.4272660257481
3.44253995715766
3.45426874898155
3.46263431227423
3.46783306363485
3.47010966350486
3.46972678013674
3.46709508784398
3.46278459716247
3.45722725211752
3.45071396737502
3.44356964123998
3.43598703265325
3.42805325662176
3.4198994020295
3.41166672101809
3.40346934687456
3.39539911739526
3.38754716688818
3.38000060168142
3.37281247644032
3.36602783522033
3.359691509691
3.35383937428632
3.34848774236361
3.34365263008305
3.3393529879046
3.33559413943988
3.33237577157012
3.32969880880418
3.3275636070146
3.32596287514308
3.32488732761772
3.32433020900678
3.32428351962909
3.32473511829643
3.32567128504694
3.32708052799095
3.32895096317277
3.3312692112076
3.33401998850557
3.33718884548884
3.34076258682335
3.34472756097086
3.34906903437868
3.35377153673195
3.35882075643031
3.3642030990148
3.36990478636953
3.37591172812731
3.3822092304569
3.38878315660187
3.39562046522301
3.40270818799579
3.41003338771985
3.41758287064606
3.42534323969897
3.4333018281254
3.44144663425598
3.44976584783589
3.45824768698928
3.46688036588014
3.47565188651695
3.48455055340212
3.49356542831132
3.50268585190546
3.51190126701659
3.5212011439706
3.53057485006748
3.54001158023113
3.54950058748609
3.55903150714784
3.56859350942821
3.578175993301
3.58776588070888
3.59735251445855
3.60691405759211
3.61644593978426
3.62588902500451
3.63528934176064
3.64440344044014
3.65359367062155
3.66165457815045
3.67078317767622
3.67405031160535
4.74234653840155
4.78787574551939
4.83991206009913
4.89571362938665
4.95366334469537
5.01242639106831
5.07128036770206
5.12984576293021
5.18692504970071
5.24291564079748
5.29779590455606
5.3513619215843
5.40347718624742
5.45375968434994
5.50198204489884
5.54824768269241
5.59202103948603
5.63293295208881
5.67075300329112
5.70554825369955
5.73740804924695
5.76594465097773
5.79121969156033
5.81333400277783
5.83240826951814
5.84856667062403
5.86197634295499
5.87282512961248
5.88130342731448
5.88759420880453
5.89186834236027
5.89428464617587
5.89497944922856
5.89407318511866
5.89167755222349
5.88789464235036
5.88281365602397
5.87650800035282
5.86903299116324
5.86042452003073
5.85069815420729
5.8398476990459
5.82784271215282
5.81462517021933
5.80010469849315
5.78414244782411
5.76633881482083
5.74632244313038
5.72393769258371
5.69926233261696
5.67181820448509
5.64058810721848
5.60422186473153
5.56066083030499
5.50676115290426
5.43654471034493
5.33914695269823
5.21181812655617
5.185395628138
5.31648652754295
5.63520938343699
6.24653911775308
7.34783412070113
9.15222581940023
11.7176082685862
14.7874469543472
17.0431570260315
16.5774582035411
12.981815925057
8.25230962340526
5.17134060614266
3.55774617205893
2.65684965929786
2.23524187287139
2.15667410510358
2.27969204517716
2.41800677476257
2.51421984977974
2.57514190012897
2.56977147711836
2.59448889153252
2.72078027066721
2.92619330687665
2.85839934714718
2.79391264534749
2.80204551179528
2.82550648084174
2.8596490638063
2.89836952904415
2.93850962186414
2.97642118340975
3.01112872532553
3.04213720192751
3.06923253212931
3.09231654273046
3.11148736158559
3.12680991822978
3.13838501505616
3.14637665466489
3.15096560747805
3.15238514321351
3.15093618831753
3.14710240368363
3.14139415188536
3.13420853747644
3.12584248527585
3.11659845966451
3.1066877058271
3.0962440997784
3.08541435956547
3.07434581370034
3.06316414167322
3.0519776419738
3.04088689256079
3.02998089818937
3.01932113618136
3.00896220527598
2.99895482504728
2.98933835992874
2.98013628328034
2.97137106542444
2.9630643646529
2.955225638879
2.94785962749312
2.94097138639821
2.93456406507897
2.92863417742016
2.92317657832741
2.91818759754143
2.91366187473108
2.90959045258695
2.90596317511277
2.90277142261761
2.90000601994282
2.89765638208207
2.89571043704749
2.89415678573279
2.89298490776494
2.89218383061538
2.89174167708964
2.89164606005382
2.89188550445581
2.8924490567935
2.89332561419659
2.89450380443812
2.89597182358586
2.89771834973945
2.89973288307007
2.90200498101397
2.90452422259401
2.90727998028453
2.91026150555625
2.9134586228681
2.91686164962751
2.92046103835537
2.92424726000614
2.9282107644755
2.93234183839125
2.93663101043042
2.94106936068602
2.94564815241932
2.95035870501916
2.9551923349223
2.96014025484736
2.96519352558991
2.97034324915302
2.97558075883566
2.98089705450958
2.98628314562848
2.99172843914238
2.99722343657325
3.00275181610141
3.00830642662934
3.01384800668976
3.01939536094305
3.02479912935262
3.0302490682983
3.03502656318584
3.04034741168894
3.04187165995756
3.95634738877507
3.98398850975806
4.01578681806331
4.05053563693882
4.08747181970553
4.12600574107929
4.16571060806309
4.20629076246624
4.24714800193204
4.28811575214994
4.32908027774325
4.36920827033009
4.40868977072418
4.44749857421106
4.48547780532934
4.52246158761448
4.55830676522588
4.59280269716242
4.62573908894428
4.65731714715319
4.68750427180902
4.71595651783999
4.74246842546813
4.76691814620257
4.78925853211787
4.80950706186553
4.82768704244573
4.84383439653448
4.85799774967545
4.87023679696819
4.88061958580232
4.88922050544121
4.89610755330352
4.90135415061946
4.90503853867314
4.90723470419975
4.90800783792288
4.90741257994159
4.90549168154949
4.90227491223345
4.89777794426016
4.89200065002765
4.88492445687102
4.87650928433664
4.86668870897813
4.85536206943255
4.84230893062491
4.82723810671177
4.8097639506964
4.78986927711981
4.76733274523263
4.74142405517058
4.71107941929391
4.67465079034502
4.62960115502722
4.57121535339284
4.49106948066731
4.38744859315342
4.35762988167086
4.44082762707294
4.65743811740215
5.07748404376839
5.8456104976006
7.18816362834058
9.25634901060129
12.0039717940061
14.7605870044877
15.8426908474509
13.9213382313822
9.78072829773586
6.12307225427864
4.02855483235891
2.81809673841616
2.19265973292076
1.99214457780345
2.04341589818687
2.15056436835649
2.23667947545975
2.29562840004959
2.30555130263489
2.34041814614688
2.45095166255463
2.61330723407908
2.57728634565448
2.54470507906391
2.5661120494538
2.59813439712844
2.63775360002209
2.68027647559977
2.72255019403379
2.76207582241125
2.79817405716968
2.83040673423949
2.85858459555328
2.88257273109041
2.9024114564587
2.9181515406665
2.92988413749662
2.93776617744297
2.94197276854814
2.94274222429092
2.94045969763834
2.93564087209277
2.92875526967815
2.92018902013863
2.91025326787715
2.89924820585673
2.88740412665797
2.87489075472524
2.86187059736126
2.84850067483892
2.83492008711648
2.82125308977789
2.80760924007433
2.79408062581401
2.78073655322398
2.76764002403461
2.75484667638535
2.74239862363008
2.73032471480703
2.71865213567928
2.70740416797464
2.69659264796465
2.68622546690795
2.67631011034173
2.66685097891866
2.65784643549899
2.64929349208421
2.6411898786529
2.63353118372534
2.62630972852145
2.61951695783537
2.61314541459871
2.60718691453211
2.60163188539436
2.59646957276613
2.5916898377801
2.58728318051709
2.58323963156174
2.5795484368186
2.57619851520855
2.57317957542326
2.57048173848934
2.56809500686773
2.56600915649178
2.56421367095943
2.56269850324048
2.56145428090771
2.56047169971145
2.55974149202554
2.55925423974965
2.55900048634758
2.5589712796931
2.55915807872817
2.55955246851061
2.56014607315162
2.56093051090387
2.56189729594925
2.56303817624191
2.56434534917388
2.56581116223683
2.56742801847801
2.56918832692604
2.57108441869459
2.57310851435884
2.5752528909833
2.57750999486689
2.57987203951097
2.58233117021994
2.58487845131995
2.58750539637241
2.59019913217542
2.59295174360613
2.59573549998751
2.59855570394188
2.60131558029419
2.60411446212694
2.60650335789717
2.60917085716215
2.60929511913384
3.3996560167652
3.41706959115752
3.43686423049109
3.45856851347445
3.48191819046012
3.50673834556914
3.53288145590055
3.56021230022569
3.5884562858809
3.61741801439685
3.64696371565013
3.67669912361515
3.70649635997949
3.73627404854055
3.76581001175239
3.79472607040174
3.82306687134088
3.85078140216519
3.87776354502984
3.90391313865078
3.92919472538102
3.95358724029102
3.97693358549927
3.9991029638482
4.02006207291948
4.03985048308832
4.05834509783559
4.07546584654208
4.09116469851302
4.10541764528382
4.11821899882617
4.12957564693836
4.13951824359904
4.14807891956722
4.15528370250769
4.16115548202862
4.16571511058096
4.1689811739403
4.17096840236135
4.17168584408857
4.17113502576487
4.16930773397517
4.16618310090542
4.16172463877818
4.1558757919609
4.14856073600878
4.13967717712181
4.12904018752719
4.11644142025199
4.1014639884161
4.08374535764565
4.06283488927029
4.03793396271188
4.00773290851451
3.97016935933488
3.92145462843815
3.85493713952655
3.7696157620394
3.74085598944551
3.7964069170877
3.95078405371746
4.25140785520253
4.80003216476012
5.78588729565619
7.41239863147315
9.74105877961795
12.484533144482
14.4935997209798
14.1433291923236
11.1031141071678
7.24212389586198
4.70390706527633
3.16877035649863
2.2809893252663
1.92245233043162
1.89135620779979
1.9646219829813
2.03971994217367
2.09576391318384
2.11408816616231
2.15316803411012
2.2511576056514
2.38649276436508
2.37467953765146
2.36565707961049
2.39774835924681
2.43715722576917
2.48199134553795
2.52824358140996
2.57318324468394
2.61497143100687
2.6530884121911
2.68711584638631
2.71686444917238
2.74216375763028
2.76300707086891
2.77943957930705
2.79154940859156
2.79949456986775
2.80345166461084
2.80369130591423
2.80070135569816