/*--------------------------------*- C++ -*----------------------------------*\
| =========                 |                                                 |
| \\      /  F ield         | OpenFOAM: The Open Source CFD Toolbox           |
|  \\    /   O peration     | Version:  2112                                  |
|   \\  /    A nd           | Website:  www.openfoam.com                      |
|    \\/     M anipulation  |                                                 |
\*---------------------------------------------------------------------------*/
FoamFile
{
    version     2.0;
    format      ascii;
    arch        "LSB;label=32;scalar=64";
    class       volScalarField;
    location    "424";
    object      p;
}
// * * * * * * * * * * * * * * * * * * * * * * * * * * * * * * * * * * * * * //

dimensions      [0 2 -2 0 0 0 0];

internalField   nonuniform List<scalar> 
36000
(
-0.0766783588855511
-0.0782126163793762
-0.0792509352900577
-0.0797864300067543
-0.0801692451393806
-0.0804929545042459
-0.0807627515542
-0.080995524497109
-0.0812101348096438
-0.0814162780868027
-0.0816181564812747
-0.0818196716107025
-0.0820244909066311
-0.0822348235785716
-0.0824522141458939
-0.0826782269688247
-0.0829142825821481
-0.0831614051728255
-0.0834204412433829
-0.0836923688811035
-0.0839783054337383
-0.0842792405634843
-0.0845961078682037
-0.08492991062869
-0.0852817647591564
-0.0856529118852007
-0.0860446115329473
-0.0864581438278836
-0.0868949360656298
-0.0873565598442228
-0.0878447363452876
-0.0883613606715165
-0.0889085672613527
-0.089488751742913
-0.0901045288305846
-0.0907587899593113
-0.0914547985542547
-0.092196246114641
-0.092987294509862
-0.0938326704429293
-0.0947377921652683
-0.0957089034699087
-0.0967532364505956
-0.0978792316399664
-0.0990968737083231
-0.100417961587627
-0.101856981918921
-0.103431886901317
-0.105164742585062
-0.107083456077427
-0.109225037916253
-0.111635967095656
-0.114385421116771
-0.117557440781238
-0.121316051654261
-0.12582623439014
-0.131653980053002
-0.139218085781283
-0.151608491613391
-0.156967896473459
-0.154154560854965
-0.146499674872291
-0.135596829783759
-0.123070805741964
-0.111252776490508
-0.101911630147112
-0.0948735518103189
-0.0893714272463101
-0.0851844643237156
-0.0821381650536483
-0.0799740477524894
-0.0784057443678995
-0.0772360448059966
-0.0764087120121904
-0.0760303671258035
-0.0760103963189678
-0.0758913462413872
-0.0758931214716754
-0.0763020969855596
-0.0765237926145465
-0.0758370060688269
-0.0749509383951008
-0.0775177361730728
-0.0782633924439223
-0.0778208663928799
-0.0764917797165759
-0.0742478137421921
-0.0713564365084247
-0.0678299155126356
-0.063793827443965
-0.0592960924193388
-0.0544293128757437
-0.049269088751642
-0.0439091220633339
-0.0384357685969104
-0.032941897613118
-0.0275105147143564
-0.0222162076625222
-0.017123567880757
-0.0122861924178194
-0.00774622821240066
-0.00353342627356168
0.000334558505778854
0.00384918871666257
0.00701030255715117
0.0098245637601634
0.0123048553600452
0.0144673105645337
0.0163313046928712
0.017917983638893
0.019248452334803
0.0203448093584678
0.021229380567582
0.0219232836632686
0.0224461653938777
0.0228173237641033
0.0230544894728176
0.0231737008289683
0.0231896870205093
0.0231162459975741
0.0229655192804583
0.0227481366146938
0.0224740642034287
0.0221521101729744
0.0217898769088979
0.0213940945301319
0.0209709219399183
0.0205256656568604
0.0200628074163783
0.0195863590794745
0.0190999191388515
0.0186065450928623
0.0181087450473702
0.017608755541523
0.017108544711355
0.0166097891767648
0.0161138253538455
0.0156217548360202
0.0151345594216386
0.0146530684669234
0.0141779348213405
0.0137096175931945
0.0132484789416536
0.0127948302712157
0.0123488951656743
0.0119108122936881
0.0114806184911308
0.0110582763929686
0.0106437428639954
0.0102369437447749
0.00983776124362456
0.00944603505364698
0.00906154702271567
0.00868405796384973
0.0083133327581507
0.0079491271669207
0.00759117296760145
0.00723918280957212
0.00689283922874747
0.00655179878490867
0.00621572658420751
0.00588429123062166
0.0055571502388105
0.005233946886209
0.0049143051918593
0.00459782870577147
0.00428408422416289
0.00397266327889079
0.00366306649389576
0.00335493376100295
0.00304745586412593
0.0027406880672496
0.00243240923891156
0.00212531999271963
0.00181005729317716
0.00150449562196046
0.00116177866354266
0.000881991641807602
0.000427115517825599
0.000302432741075992
-0.0766705683931474
-0.0782107450130973
-0.079245205450514
-0.079780178233349
-0.0801639764918449
-0.0804889698330594
-0.08075973590382
-0.0809931918292499
-0.0812083324372895
-0.0814148973019909
-0.08161711277881
-0.0818188955706639
-0.0820239184859439
-0.0822344100688197
-0.0824519286577037
-0.082678049074148
-0.0829141953803689
-0.083161391796523
-0.0834204869716789
-0.0836924631900973
-0.083978440326892
-0.0842794075279463
-0.0845962995428075
-0.0849301211953946
-0.0852819884416085
-0.0856531439271936
-0.08604484827226
-0.0864583818391469
-0.0868951726458137
-0.0873567922997524
-0.08784496196279
-0.0883615767582872
-0.0889087716182438
-0.0894889423006157
-0.0901047028360066
-0.0907589444098677
-0.0914549305087543
-0.0921963524253789
-0.0929873714544108
-0.0938327137664076
-0.0947377970604799
-0.0957088642698311
-0.0967531462410967
-0.0978790819336292
-0.0990966535321183
-0.100417656014557
-0.101856575501044
-0.103431357575198
-0.105164054297524
-0.107082561912571
-0.109223872482485
-0.111634409957968
-0.114383309644862
-0.117554371019127
-0.121311486201197
-0.125817964896869
-0.131638163675087
-0.13915118109451
-0.151372577939571
-0.15672163427509
-0.154015918948981
-0.146485327180302
-0.135685317161106
-0.123217779449439
-0.111410090055934
-0.102055169691615
-0.0950059348490972
-0.0894921301754447
-0.0852867154270296
-0.0822197855245086
-0.0800385486879728
-0.0784578956146306
-0.0772776284566565
-0.0764350288361528
-0.076037318422208
-0.0760090365240449
-0.0758942503463205
-0.0758842646995581
-0.0762925776594269
-0.0765465197272774
-0.0758941727097711
-0.0749752408737186
-0.0775238874734629
-0.0782617011230489
-0.0778186946149318
-0.0764904896731178
-0.0742456626872556
-0.0713552754675594
-0.0678300618750149
-0.0637961534917651
-0.0593005521244276
-0.0544360337227417
-0.0492783753910321
-0.0439212806957498
-0.0384507853471809
-0.0329596782502277
-0.0275308955558409
-0.022238956551644
-0.0171483888185053
-0.0123127437546485
-0.00777414572190527
-0.00356235690992074
0.000304940670973398
0.00381917592440042
0.00698055956144503
0.00979574138930471
0.0122768624677763
0.0144400196864988
0.0163048525106421
0.0178924561970547
0.0192239254416215
0.0203213468536727
0.0212070185193216
0.0219020293584309
0.0224260151722077
0.0227982723174337
0.0230365133007337
0.0231567664267815
0.0231737598303362
0.0231012908935167
0.0229514900703653
0.0227349857290761
0.0224617511020458
0.0221405897775046
0.0217791020213826
0.0213840211383227
0.020961510597755
0.0205168747486085
0.0200545953803967
0.0195786891852821
0.019092757687943
0.0185998581515968
0.0181024989342412
0.0176029207528164
0.0171030941159668
0.0166046970249659
0.0161090658953716
0.0156173042740491
0.0151303968840358
0.0146491746049888
0.0141742910010918
0.0137062054076475
0.0132452819084926
0.0127918337727497
0.0123460855379147
0.0119081767333427
0.0114781443306964
0.0110559517804456
0.0106415576186246
0.0102348884207792
0.00983582706698068
0.00944421366067838
0.00905983008309675
0.00868243795405471
0.00831180309504089
0.00794768179216967
0.00758980616972695
0.00723788925709307
0.00689161358277132
0.00655063590418157
0.00621462208995113
0.00588324116869378
0.00555615089659728
0.00523299479221894
0.00491339702159714
0.00459696116073912
0.00428325403386962
0.00397186794831112
0.00366230308208188
0.00335420120375913
0.00304674941379314
0.00274001234753864
0.00243174806156145
0.00212470711796951
0.00180941309426889
0.00150400939759152
0.0011610292897657
0.000881897977607048
0.000425286433240177
0.000306209323595434
-0.0767035432094888
-0.0782178104860329
-0.0792345356652684
-0.079766776832005
-0.0801518564473176
-0.0804788251896012
-0.0807511661976732
-0.0809858579779229
-0.0812020704754466
-0.0814095606068148
-0.0816125599162428
-0.0818150321385876
-0.0820206567160338
-0.0822316504718394
-0.0824495863851526
-0.0826760686025464
-0.0829125346493091
-0.0831600101945138
-0.0834193484411325
-0.0836915415530112
-0.0839777154522115
-0.0842788573392127
-0.0845959041951829
-0.0849298682230494
-0.0852818645527811
-0.0856531331875664
-0.0860449380761303
-0.086458561772918
-0.0868954352414424
-0.0873571307578158
-0.0878453699479587
-0.0883620484768828
-0.0889093032312111
-0.0894895310834115
-0.0901053450025801
-0.0907596362616962
-0.091455669367781
-0.0921971360450649
-0.0929881971714378
-0.093833578756573
-0.0947386985226218
-0.0957097988662368
-0.0967541093814706
-0.0978800673713915
-0.0990976514147707
-0.100418646336744
-0.101857542457115
-0.103432278840987
-0.105164877045905
-0.107083217398181
-0.109224248705786
-0.11163427540192
-0.114382335227589
-0.117551711596497
-0.121305858881572
-0.125804401889813
-0.131606435682481
-0.139010417912652
-0.150875372201355
-0.156130700553793
-0.153555387682958
-0.146227246522784
-0.135626098412807
-0.12329063653781
-0.11152231727283
-0.102158322496928
-0.0950976908151623
-0.0895842231627873
-0.0853710395264892
-0.0822891093472241
-0.0800946072269759
-0.07850460798182
-0.077315743763992
-0.0764575740231928
-0.0760376964690731
-0.0759986208533483
-0.0758986987700422
-0.0758830181520838
-0.0762971431411539
-0.0765912895731803
-0.0760083099489277
-0.075107761662648
-0.0775571484701123
-0.0782786214276477
-0.0778276610222528
-0.0764957759339839
-0.0742493160098267
-0.0713630292504451
-0.0678435249556268
-0.0638172301230987
-0.0593297906045145
-0.0544742219876933
-0.0493255568245638
-0.043977442353684
-0.0385153422505693
-0.0330318183065367
-0.0276096475734177
-0.0223232383012569
-0.0172370218167506
-0.0124045034226073
-0.00786781977899275
-0.00365683129304349
0.000210646162092806
0.00372610828214502
0.00688906235242816
0.00970583266673302
0.0121891362234014
0.0143550108381716
0.0162228996646707
0.0178137700098775
0.0191486756183225
0.0202496624735696
0.021138948795767
0.0218375460015757
0.0223650603420247
0.0227407821407342
0.0229823783605406
0.0231058538418233
0.0231259357733474
0.0230564218266567
0.022909418170621
0.0226955529301299
0.0224248191284264
0.0221060122416454
0.0217467305501924
0.0213537179037518
0.0209331514314131
0.0204903327796373
0.0200297463194215
0.0195554225824563
0.0190709723921994
0.0185794543167624
0.0180833789713779
0.0175849986513305
0.017086290886416
0.0165889383034757
0.016094278352679
0.0156034202163676
0.0151173565198747
0.0146369226158149
0.0141627745265211
0.0136953726635129
0.0132350862800962
0.0127822336181721
0.0123370419774516
0.0118996534400917
0.011470105588595
0.0110483640943887
0.0106343918418538
0.0102281174316098
0.00982942568070381
0.00943815793853919
0.00905409628587508
0.00867700445428338
0.00830665071840474
0.00794279280687844
0.00758516387327116
0.00723347806288813
0.0068874179660258
0.00654664087383884
0.00621081463059758
0.00587960940462292
0.00555268366340493
0.00522968165114738
0.00491022801804702
0.0045939264491274
0.00428034391215954
0.00396907466528739
0.00365961803225629
0.00335162024497088
0.00304426028108807
0.00273762436208863
0.0024294239066368
0.00212252299746769
0.00180719092603559
0.00150217926244
0.0011586508600673
0.000881115426643671
0.000420793356923215
0.00031506779565382
-0.0767846821879129
-0.0782265258612942
-0.0792194706330638
-0.0797499652954554
-0.0801360704225643
-0.0804646164463992
-0.0807383889625104
-0.0809743625647085
-0.0811917839030772
-0.0814003793811633
-0.0816043406231619
-0.0818077005432932
-0.0820141567806283
-0.0822258943746485
-0.0824444880214608
-0.0826715567507332
-0.0829085511340088
-0.0831564978943671
-0.0834162572838422
-0.0836888367361545
-0.0839753708547876
-0.0842768418270784
-0.0845941888314658
-0.0849284322504732
-0.0852806860710237
-0.0856521891388771
-0.0860442097142946
-0.0864580325200697
-0.0868950925321122
-0.0873569626049839
-0.0878453648765899
-0.0883621956647972
-0.0889095950728804
-0.0894899620050586
-0.0901059078025661
-0.0907603238394928
-0.0914564761794754
-0.0921980571714051
-0.0929892269159352
-0.0938347109826764
-0.0947399268945446
-0.0957111158491753
-0.0967555048893132
-0.0978815280304157
-0.0990991571768942
-0.100420147983731
-0.101858992531545
-0.103433633804174
-0.105166039938892
-0.107084051287828
-0.109224543850891
-0.111633595427143
-0.114380012431955
-0.117546242997764
-0.121294746786199
-0.125779363299882
-0.131549264106738
-0.138802985454498
-0.150214713743106
-0.155327760932254
-0.15286477214533
-0.145741731774878
-0.135370943646011
-0.123223345739393
-0.111545581031166
-0.102191037926046
-0.0951192929598126
-0.0896148027263637
-0.0854152698648834
-0.0823330949832937
-0.0801339406081986
-0.0785401277770277
-0.0773456346216923
-0.076471597646263
-0.0760263165521873
-0.0759726529459479
-0.0759027253782271
-0.0758919748320176
-0.0763203439809105
-0.0766582981546007
-0.0761784605699901
-0.0753779008202584
-0.0776121545933453
-0.0783080890725428
-0.0778389418548955
-0.0765010450532496
-0.0742563772838066
-0.0713805969994371
-0.0678737241583227
-0.0638628305306436
-0.0593914848714685
-0.0545527727446119
-0.0494205695392667
-0.0440883971048821
-0.0386409946092464
-0.033170598395893
-0.0277597492410469
-0.0224827252141864
-0.0174038460191912
-0.0125765787975427
-0.00804310719327887
-0.0038334649070075
3.43542775272977e-05
0.0035514087142644
0.00671705540685149
0.00953769211948882
0.0120258465784745
0.0141973165878237
0.0160712676759989
0.0176684759201397
0.019009919920259
0.0201175823525317
0.0210135597359661
0.0217187438449163
0.0222526957152358
0.0226347015394381
0.0228823612948944
0.0230116453827896
0.0230372818738012
0.0229730730863775
0.0228310905531273
0.0226219632976038
0.0223557174067578
0.0220411389062252
0.0216858248843144
0.0212965365072233
0.0208794740176269
0.0204399370039967
0.0199824150029361
0.019510960794607
0.0190292011632879
0.0185401984186082
0.0180464675942221
0.017550279582099
0.0170536238347643
0.0165581915684729
0.0160653227746682
0.0155761359407725
0.0150916365759423
0.0146126679529065
0.0141398909360127
0.0136737682050796
0.0132146774646239
0.0127629451889341
0.0123188037034126
0.0118823998332356
0.0114537725885231
0.011032891395991
0.010619726241295
0.0102142093193897
0.00981622905200735
0.00942562920733369
0.00904219244633096
0.00866568598957846
0.00829588215993761
0.00793254127169006
0.00757539846571495
0.00722416998829153
0.00687853873680307
0.00653816294502691
0.00620271367320627
0.00587186305002036
0.00554527092436324
0.00522258294001042
0.0049034247487313
0.0045874003426292
0.00427407704663936
0.0039630522334692
0.00365382426760487
0.00334604625175394
0.00303888579684565
0.00273246107803451
0.00242441659269951
0.00211778231850846
0.00180246052755692
0.00149809179423561
0.00115383830484
0.000878924133500084
0.000413131633766234
0.000327643021360851
-0.0768955870082722
-0.0782318894864178
-0.0792037017766548
-0.0797349749651464
-0.0801217555379293
-0.0804513189893595
-0.0807261001394489
-0.0809629474939204
-0.0811811722500095
-0.0813905407318572
-0.0815951824782815
-0.0817991870494742
-0.0820062838081106
-0.0822186186141712
-0.0824377711461264
-0.0826653808978649
-0.0829028929015754
-0.0831513117902781
-0.0834115025785312
-0.0836844905219719
-0.0839714180940786
-0.0842732568061553
-0.0845909464121592
-0.0849255107145814
-0.0852780630792322
-0.085649847148639
-0.0860421331990958
-0.0864562050656176
-0.0868935009591509
-0.0873555931115848
-0.0878442033990066
-0.0883612280790714
-0.0889088108902869
-0.0894893529147931
-0.0901054625945021
-0.0907600305483075
-0.0914563239748473
-0.0921980351737923
-0.0929893222796817
-0.0938349091965743
-0.094740211920337
-0.0957114685428262
-0.0967559007792454
-0.0978819361807967
-0.0990995370020966
-0.100420425491754
-0.101859058384475
-0.103433372736085
-0.105165278583593
-0.107082537270122
-0.109222009899404
-0.111629398772313
-0.11437299868435
-0.117534129756258
-0.121273725747401
-0.125737934598491
-0.131462769454722
-0.138543420690243
-0.149467522222712
-0.154420969051617
-0.152068038967605
-0.14515523017677
-0.13503652671508
-0.123109063680164
-0.111546067037859
-0.102193830729418
-0.0951093223908753
-0.0895975651359456
-0.0854138872039743
-0.082348684341662
-0.0801572293077982
-0.0785672594383022
-0.0773705812679978
-0.0764793413070968
-0.076003802722637
-0.0759294798403245
-0.0759008431843813
-0.0759023785314193
-0.0763503862768369
-0.0767328270284537
-0.0763672891980811
-0.0757211073397526
-0.0776733364969709
-0.078342552644526
-0.077847767188683
-0.0765069784917087
-0.0742677788726517
-0.071407136217558
-0.0679170410731995
-0.063925848634803
-0.0594745042503172
-0.054656250091764
-0.0495437260351026
-0.0442303706383752
-0.0388001668458198
-0.0333450538395826
-0.0279473279763017
-0.0226811530678524
-0.0176107604466958
-0.0127896037425288
-0.00825994318798104
-0.00405200467577229
-0.000184032927754436
0.00333480372529191
0.00650384947144739
0.00932926009481779
0.0118231702006918
0.0140011489227637
0.0158821561519711
0.0174867508530629
0.0188358174357013
0.0199512729608462
0.0208550853400922
0.0215680075116457
0.022109543435076
0.0224989818837102
0.0227538441893761
0.0228900560168789
0.0229223443173265
0.0228645195703491
0.0227286082719251
0.0225252349242266
0.022264465381751
0.0219550725717326
0.021604648126261
0.0212199705718019
0.0208072674530612
0.0203718337006287
0.019918161665274
0.0194503290433009
0.018971981262027
0.0184861838150323
0.0179954546521353
0.0175020859418256
0.0170080808690147
0.0165151406972737
0.0160246071638304
0.0155376089074095
0.0150551666422157
0.0145781331276842
0.0141071748885602
0.0136427565161514
0.0131852655491201
0.0127350383502009
0.012292313363614
0.0118572432888616
0.0114298684965535
0.0110101626380346
0.0105981044079599
0.0101936304076587
0.00979663367000432
0.00940696098934202
0.00902439550734549
0.00864870864302844
0.00827967774164672
0.00791706641752722
0.00756061240001273
0.00721003469248558
0.00686501651435723
0.006525217147738
0.00619031169494202
0.00585997479004881
0.00553386814300613
0.0052116392851676
0.00489291525697463
0.00457730044487444
0.00426436264044093
0.0039537031921529
0.00364481952482584
0.00333737341372835
0.00303051908759064
0.0027244141329083
0.0024166225988883
0.00211037745063585
0.00179513615031199
0.00149163158389133
0.00114656907462773
0.000875145547096806
0.000402567684907494
0.000342342217028863
-0.0770239460621459
-0.0782365679231317
-0.0791887462151594
-0.0797207506655608
-0.0801079883314105
-0.0804392397359435
-0.0807154586423695
-0.080953221922373
-0.0811721325482279
-0.0813820678492926
-0.0815871200428437
-0.0817914503422012
-0.0819989035036246
-0.0822115837702364
-0.0824310536487989
-0.0826589831797406
-0.0828968301644482
-0.0831455761450712
-0.0834060805030482
-0.0836793782367208
-0.0839666159286879
-0.0842687503181381
-0.0845867220012492
-0.084921557464169
-0.0852743686785762
-0.0856464034775586
-0.0860389304779448
-0.0864532304568182
-0.0868907449277979
-0.0873530445816246
-0.0878418500337529
-0.088359056347343
-0.0889068107573139
-0.0894875158455667
-0.0901037750964389
-0.090758476900342
-0.0914548887381524
-0.0921967018820442
-0.0929880709807818
-0.0938337166069809
-0.0947390513723869
-0.0957103077793191
-0.0967546987848016
-0.0978806413652795
-0.0990980925242194
-0.100418836926818
-0.101857193898613
-0.103430929107042
-0.105161944410314
-0.107077942055444
-0.109215730098654
-0.11162054207559
-0.114359998713325
-0.117513977713961
-0.121241344161619
-0.125679089862545
-0.131346996414663
-0.13824065295096
-0.148664759335984
-0.153445255609021
-0.15120355072493
-0.144507934690468
-0.134662038616677
-0.122981854936001
-0.111552428029061
-0.102206175967726
-0.0951074284303055
-0.0895835622841596
-0.0853817534720542
-0.0823359235839796
-0.0801635173320442
-0.0785840683527377
-0.0773901316489568
-0.0764826184377241
-0.0759737944327846
-0.0758726668133211
-0.0758900771850924
-0.0759071210899282
-0.076378378524794
-0.0768064651529006
-0.0765540614496599
-0.0760844363543026
-0.0777381556911278
-0.0783866461963665
-0.0778581228741952
-0.0765175512274276
-0.074284446960864
-0.0714402259076496
-0.0679676419993766
-0.0639969490223758
-0.0595659976065106
-0.0547683772814564
-0.0496755185938439
-0.0443808661722833
-0.0389676543600484
-0.0335276044891418
-0.0281427858865399
-0.022887262020706
-0.0178252051885386
-0.0130100763688488
-0.0084842297181696
-0.00427806083616927
-0.000410038112773208
0.00311051590581358
0.00628277632594647
0.00911260313013291
0.0116118586130591
0.0137959268078534
0.0156836168431809
0.0172952654513886
0.0186516534146879
0.0197746411617087
0.0206860809502693
0.0214065806791128
0.0219555779257745
0.0223523742631667
0.022614407524346
0.0227575500188242
0.022796524926011
0.0227451554527042
0.0226154138798985
0.0224179124364957
0.0221627612480191
0.0218587161912652
0.0215133571285659
0.0211334772404349
0.0207253334840007
0.0202942121571514
0.0198446036286922
0.0193806104409086
0.018905897423985
0.0184235309912994
0.0179360283890287
0.0174457033674636
0.0169545728930595
0.0164643480957261
0.0159763700806877
0.0154917766599617
0.0150116043946956
0.0145367157642487
0.0140677825178559
0.013605269563591
0.0131495742970187
0.0127010434570555
0.0122599217084901
0.0118263678051456
0.0114004225703884
0.0109820634431188
0.0105712785399826
0.0101680089833328
0.00977215274680242
0.00938355965336392
0.00900201268451336
0.00862728756011595
0.00825916707790437
0.00789741840964506
0.00754178204587411
0.00719198000869734
0.0068476955269843
0.00650858868860665
0.00617433909131532
0.00584462412801607
0.00551910758250108
0.00519743910195805
0.00487924728849056
0.00456413680930271
0.00425167585536548
0.00394147033423104
0.00363301672533915
0.00332598677959873
0.00301951992197176
0.00271381870307036
0.00240635696748793
0.00210059851371771
0.00178549807576364
0.00148303824024479
0.00113711322128719
0.000869888983132853
0.000389602323585415
0.000358005986791556
-0.0771629028941476
-0.0782444556262035
-0.0791758226924931
-0.0797069893382823
-0.0800940537018243
-0.0804269773934719
-0.0807047951761297
-0.0809441712490018
-0.0811645220149232
-0.0813752124590145
-0.0815806945612982
-0.0817853106644665
-0.081993014388848
-0.0822059009880326
-0.0824254833433101
-0.0826534977216077
-0.0828914730099406
-0.0831403699603444
-0.0834010216810142
-0.0836744658355755
-0.0839618632251136
-0.0842641589294241
-0.0845822945833593
-0.0849172974094734
-0.0852702737979076
-0.0856424726543348
-0.0860351589789497
-0.0864496106202036
-0.0868872740392096
-0.0873497175854492
-0.0878386591119221
-0.0883559909762973
-0.0889038632347219
-0.0894846783967151
-0.0901010326313614
-0.0907558109775809
-0.0914522806747513
-0.0921941310307748
-0.0929855114778393
-0.0938311372652304
-0.0947364154162685
-0.0957075700185077
-0.0967518014786655
-0.0978775118841705
-0.0990946462474809
-0.100415095689308
-0.101853110633593
-0.103426131391391
-0.105155918057332
-0.107070152324347
-0.109205494711925
-0.111606677436551
-0.114340603590478
-0.117485365580064
-0.121197161136302
-0.125602711250829
-0.131202850222131
-0.137900436489569
-0.147821504189499
-0.152416947257248
-0.150284268578115
-0.143810536551621
-0.134247347761683
-0.122841890638315
-0.11156070084958
-0.102229586951523
-0.0951087170827861
-0.0895873217975722
-0.0853537900944775
-0.0822993667858698
-0.0801570628198628
-0.0785907566094081
-0.0774027554501125
-0.076482011483838
-0.0759400948154945
-0.0758074825699423
-0.0758715149908558
-0.075904781593477
-0.0764021696261933
-0.0768775752002539
-0.0767348232515361
-0.0764477898294976
-0.0778087532834882
-0.0784432446644411
-0.0778728524776885
-0.0765342660432707
-0.0743061727226055
-0.0714782194533771
-0.0680225667783282
-0.0640718086480007
-0.0596604239350095
-0.0548825102775038
-0.0498083058559693
-0.0445313473042511
-0.0391341325822564
-0.0337082550924143
-0.0283355789030317
-0.0230900730237336
-0.0180358760048663
-0.0132264705104114
-0.00870430892696251
-0.0044999285359801
-0.000631993010076171
0.00289000610725988
0.00606501295943924
0.00889867589221685
0.0114026627162693
0.0135921948438381
0.0154859613936288
0.0171040770462149
0.0184672120575607
0.0195971836140219
0.0205157472694966
0.0212433622667094
0.0217993913123499
0.0222031619650546
0.0224720264584846
0.0226217960210223
0.0226671885214337
0.0226220465098549
0.0224982797930336
0.0223064806944181
0.0220568091786658
0.0217580009611481
0.0214176178107011
0.0210424650430582
0.020638831740521
0.0202119918127344
0.0197664286001569
0.0193062694276924
0.0188351995235078
0.0183562838866637
0.0178720351219371
0.0173847886920962
0.0168965753733786
0.0164091158619454
0.015923747968347
0.0154416173837294
0.0149637769692716
0.0144910990207428
0.01402425985512
0.0135637227907175
0.0131098948186717
0.0126631333319211
0.0122236891179144
0.0117917269539193
0.01136728695228
0.010950349628243
0.0105409130137876
0.0101389226730647
0.00974428165641316
0.00935684262416336
0.00897638753823875
0.00860269630502067
0.0082355574274775
0.00787474172458293
0.00751999245529288
0.0071710347742565
0.00682755144699999
0.00648920295298686
0.00615567369141758
0.00582664393986983
0.00550177964073502
0.00518073266205685
0.0048631332385893
0.00454858607859158
0.00423665961067448
0.00392696473074166
0.00361899699737425
0.0033124390716724
0.0030064146934404
0.00270117538709072
0.00239409824955259
0.00208889799146128
0.00177398578624185
0.0014727114840714
0.00112589470324536
0.00086343061983937
0.000374861852595002
0.000373998695051131
-0.0773048732395698
-0.0782563037534744
-0.0791653229993102
-0.0796948788917
-0.080081048616951
-0.0804147529584955
-0.0806938365851664
-0.0809349328490813
-0.0811568715486523
-0.0813684286667722
-0.0815748629755273
-0.0817803838164074
-0.081988511507555
-0.0822016243412995
-0.0824213095823136
-0.0826493735931648
-0.0828874026528771
-0.0831363571786703
-0.0833970165647024
-0.0836704359530451
-0.0839578408088913
-0.0842601685935885
-0.0845783509794035
-0.0849134067249961
-0.0852664271028937
-0.0856386675148399
-0.0860313996390456
-0.0864458989704961
-0.0868836161734484
-0.0873461145118503
-0.0878351068610283
-0.0883524805610362
-0.0889003872832455
-0.0894812288078902
-0.0900975930852848
-0.0907523617516885
-0.091448801465353
-0.0921905982541049
-0.0929818941366688
-0.093827396715065
-0.0947325050175477
-0.0957034317421902
-0.0967473608604739
-0.0978726746759025
-0.0990892907154549
-0.100409098306845
-0.101846377467163
-0.103418458256633
-0.105146860451722
-0.107058958191124
-0.109191166826273
-0.111587750326938
-0.114314772692249
-0.117448250162159
-0.121141148714872
-0.12550903462443
-0.131031539489906
-0.137526732708897
-0.146947921580286
-0.151349464329152
-0.1493217139707
-0.143071567868805
-0.133796148601156
-0.122686122008007
-0.111579078762028
-0.10226471264788
-0.0951079934425964
-0.0895856636108973
-0.0853528496276806
-0.0822564040145407
-0.0801403591137746
-0.0785914422891896
-0.0774088739953824
-0.0764777043970387
-0.0759051948683257
-0.0757377887561664
-0.075847211614868
-0.0758960141601921
-0.0764216701404948
-0.0769458158126824
-0.0769087729967127
-0.0768057230290536
-0.0778851179080352
-0.0785116312921998
-0.0778927097534326
-0.0765571972175929
-0.0743325818886668
-0.0715203684597374
-0.06808072499823
-0.0641488840811692
-0.0597558900720612
-0.0549964353763915
-0.0499395858969081
-0.0446790489170696
-0.0392966041756903
-0.0338838138727485
-0.0285223625114309
-0.0232861273885511
-0.0182392372408745
-0.0134352077024401
-0.00891658563848398
-0.00471403137234035
-0.00084636289549917
0.00267675266857938
0.00585405079753891
0.0086910266993388
0.0111991783598491
0.0133935803751764
0.0152928329506784
0.0169168295981712
0.0182861238886977
0.0194225068386181
0.0203476590553949
0.0210818867417335
0.0216444692139694
0.0220547762060601
0.0223300732468745
0.0224861024317868
0.0225375757424661
0.0224983635334157
0.0223803046641928
0.0221939637767817
0.0219495576983848
0.0216557992824768
0.0213202256043302
0.0209496519442719
0.0205504031094807
0.0201277369019454
0.0196861243557492
0.0192297178932816
0.0187622246476487
0.0182867058686204
0.0178056653892445
0.0173214607344868
0.0168361367888375
0.01635142365351
0.0158686530437524
0.0153889772101025
0.014913465931944
0.0144430015642815
0.0139782643476876
0.0135197139763936
0.013067766790867
0.0126227911890608
0.0121850440290055
0.0117546961133697
0.0113317855878983
0.010916295269908
0.0105082336386619
0.0101075506195252
0.0097141544913999
0.00932790054050681
0.00894856876110663
0.00857594309307083
0.00820981799558024
0.00784996800589793
0.00749613913855309
0.00714805978808296
0.00680541171847802
0.00646785531816407
0.00613508008052659
0.00580676927015904
0.00548259104403666
0.00516219957228147
0.00484522677821663
0.00453127710843646
0.00421991904108061
0.00391076882530971
0.00360332121369063
0.00329727043343485
0.00299172422912515
0.00268698572655461
0.00238033186198429
0.00207574096075405
0.00176105656047899
0.00146107408630744
0.00111336709684667
0.000856083334215889
0.000358982633743729
0.000389954967498214
-0.0774446086813245
-0.0782721985615453
-0.0791571679591368
-0.0796843454868713
-0.0800692117761215
-0.0804034064435186
-0.0806836676721108
-0.0809260078540394
-0.0811490158790029
-0.0813614264148502
-0.0815689350478554
-0.0817754636253618
-0.0819840868407369
-0.0821975717543223
-0.0824177645329835
-0.0826462526649309
-0.0828844323825248
-0.0831334416180977
-0.0833940913226088
-0.0836674673274917
-0.0839548379721789
-0.0842571400280663
-0.0845752955931352
-0.0849103115123344
-0.0852632571895267
-0.085635416196808
-0.0860280890880586
-0.0864425417361859
-0.086880221498066
-0.0873426830914097
-0.0878316338609906
-0.0883489517828325
-0.0888967896484815
-0.0894775546597852
-0.0900938282340545
-0.0907484871965747
-0.0914447957238354
-0.0921864343893446
-0.0929775353066076
-0.0938227961382021
-0.0947276056569835
-0.0956981623226941
-0.096741629909468
-0.0978663653571626
-0.0990822515780551
-0.100401092014416
-0.101837129230832