/*--------------------------------*- C++ -*----------------------------------*\
| =========                 |                                                 |
| \\      /  F ield         | OpenFOAM: The Open Source CFD Toolbox           |
|  \\    /   O peration     | Version:  2112                                  |
|   \\  /    A nd           | Website:  www.openfoam.com                      |
|    \\/     M anipulation  |                                                 |
\*---------------------------------------------------------------------------*/
FoamFile
{
    version     2.0;
    format      ascii;
    arch        "LSB;label=32;scalar=64";
    class       surfaceScalarField;
    location    "424";
    object      phi;
}
// * * * * * * * * * * * * * * * * * * * * * * * * * * * * * * * * * * * * * //

dimensions      [0 3 -1 0 0 0 0];

oriented        oriented;

internalField   nonuniform List<scalar> 
71620
(
0.000293065827365432
-1.66525948347441e-06
0.00028415391859078
8.91190851579522e-06
0.000274876138401007
9.27777985151727e-06
0.000268137364341677
6.73877371780797e-06
0.000263696482531602
4.44088145985676e-06
0.000260760240866494
2.93624134067286e-06
0.000258825648910923
1.93459160227678e-06
0.000257619905874348
1.20574274269619e-06
0.000256953179751376
6.66725769518189e-07
0.000256682675576407
2.70503907932715e-07
0.000256710006430193
-2.73312101847545e-08
0.000256966267492614
-2.56261320164674e-07
0.000257398643286393
-4.32376167246565e-07
0.000257966287421676
-5.67644406290167e-07
0.000258640705554038
-6.74418527397593e-07
0.000259400346448701
-7.59641185151639e-07
0.00026022744640881
-8.27100364696812e-07
0.000261109053920042
-8.81607808529191e-07
0.00026203704093336
-9.27987419492304e-07
0.000263005596341525
-9.68555708321897e-07
0.000264009058630403
-1.00346269364462e-06
0.000265043360849998
-1.03430252598937e-06
0.000266106346517237
-1.06298606827566e-06
0.000267196837309942
-1.09049110194636e-06
0.000268314650394507
-1.11781348178145e-06
0.00026946055923248
-1.14590914042219e-06
0.000270636282430974
-1.1757235902175e-06
0.000271844624938964
-1.20834279138034e-06
0.000273088788823459
-1.24416426194779e-06
0.000274372425929734
-1.28363735701266e-06
0.000275699818665554
-1.32739308108281e-06
0.000277076163906425
-1.37634544358557e-06
0.000278507276829683
-1.43111320786515e-06
0.000279999280726093
-1.49200403498431e-06
0.000281559235431719
-1.55995488820982e-06
0.000283195516038696
-1.6362806685277e-06
0.000284917758274704
-1.72224226050024e-06
0.000286736914305983
-1.81915601366299e-06
0.00028866570657166
-1.92879206856068e-06
0.000290719070472969
-2.05336382586943e-06
0.000292914527054453
-2.19545611571012e-06
0.00029527273792957
-2.35821080017347e-06
0.000297818419608701
-2.54568096507726e-06
0.000300581518611394
-2.76309902976151e-06
0.00030359850410675
-3.01698472448525e-06
0.000306916797216903
-3.31829341761962e-06
0.000310595449945314
-3.67865230704271e-06
0.000314707403662538
-4.11195459396426e-06
0.000319350795915033
-4.64339250612296e-06
0.00032465900829585
-5.30821400072974e-06
0.000330807518608715
-6.14851116549944e-06
0.000338065104382374
-7.25758789467111e-06
0.000346795330165651
-8.73022705328726e-06
0.000357686247164484
-1.08909192741509e-05
0.000371653906302996
-1.39676608491077e-05
0.000391169968962386
-1.95160651105995e-05
0.000420156350632268
-2.89863837099919e-05
0.000452487270150241
-3.23309222548888e-05
0.000410277445724472
4.22098223768605e-05
0.000324577753000417
8.56996898412311e-05
0.000224669064566075
9.99086865356183e-05
0.00012345889244163
0.00010121016945775
3.29734213399735e-05
9.04854697461043e-05
-3.29744670919021e-05
6.59478862892243e-05
-6.97494685688837e-05
3.67750014727494e-05
-8.5533161300774e-05
1.57836911463303e-05
-8.82486931296266e-05
2.71553256684962e-06
-8.2633066230071e-05
-5.61562815106937e-06
-7.31133175795753e-05
-9.51974943370917e-06
-6.30700207882839e-05
-1.00432979591916e-05
-5.40486794281404e-05
-9.0213445665914e-06
-4.60229467329158e-05
-8.02573418237343e-06
-3.84391158949473e-05
-7.58383480003333e-06
-3.10091623928826e-05
-7.42995701886668e-06
-2.66891261394403e-05
-4.3200384235294e-06
-2.87001805378608e-05
2.01104752966342e-06
-3.06009049694364e-05
1.90072602823538e-06
-3.26591598742121e-05
2.05824585766148e-06
-4.47433247710858e-05
1.20841698728333e-05
-6.30685662745507e-05
1.83252344715851e-05
-6.8710441796502e-05
5.64188036949179e-06
-3.22886579127032e-05
-3.64217859015498e-05
-7.43329602881795e-05
4.20443049464557e-05
-0.000122574979202176
4.82420201967569e-05
-0.000156672569404689
3.4097590944338e-05
-0.000183257820914102
2.65852526269077e-05
-0.000201974366563222
1.87165454223356e-05
-0.000216192052638232
1.4217685976112e-05
-0.000225834161250748
9.64210809654967e-06
-0.000231700974232126
5.86681234364392e-06
-0.00023357104892069
1.87007446822653e-06
-0.000231659670494487
-1.91137889533157e-06
-0.000226206739915572
-5.45293037759861e-06
-0.000217633396957822
-8.57334314673097e-06
-0.000206200854719275
-1.14325418272615e-05
-0.000192312533146332
-1.3888321635957e-05
-0.000176364566698926
-1.59479660300688e-05
-0.000158743586248097
-1.76209804596291e-05
-0.000139831636082608
-1.89119497708268e-05
-0.000119998721141324
-1.98329148427635e-05
-9.96012442371936e-05
-2.0397476458353e-05
-7.89607471896147e-05
-2.06404967790407e-05
-5.83378351500699e-05
-2.06229115123249e-05
-3.79601638943266e-05
-2.03776708082953e-05
-1.80151708122286e-05
-1.99449925088978e-05
1.36576541951562e-06
-1.93809356211965e-05
2.00416530816943e-05
-1.86758870745466e-05
3.79003184433028e-05
-1.78586645846514e-05
5.4915716508508e-05
-1.70153974329028e-05
7.10602886870628e-05
-1.61445712522813e-05
8.63024023411866e-05
-1.52421129681004e-05
0.000100630361814076
-1.43279584606994e-05
0.000114061668498619
-1.34313059582177e-05
0.000126623051932178
-1.25613824008245e-05
0.000138333850680606
-1.17107979999346e-05
0.000149230322537941
-1.08964708541613e-05
0.000159354764016262
-1.01244407340262e-05
0.000168747309150757
-9.39254419809072e-06
0.000177445691072091
-8.69838121165183e-06
0.000185496614197112
-8.0509222718715e-06
0.000192945313348114
-7.44869849144024e-06
0.000199828345284026
-6.88303115863216e-06
0.000206186135369216
-6.35778946943204e-06
0.000212059187170809
-5.87305108270263e-06
0.000217483569546976
-5.4243817906426e-06
0.000222491004541487
-5.0074343231937e-06
0.000227114794697613
-4.62378959675722e-06
0.000231386836201744
-4.27204088179848e-06
0.000235334086013072
-3.94724928471654e-06
0.000238981254236896
-3.64716765606644e-06
0.000242353213536091
-3.3719588121283e-06
0.000245473781027373
-3.12056697725424e-06
0.000248362818647981
-2.88903717200237e-06
0.000251038568002044
-2.67574888522969e-06
0.000253518498194198
-2.47992977456567e-06
0.000255819785332639
-2.30128670473576e-06
0.000257957560045088
-2.13777431854981e-06
0.000259944691935523
-1.98713148544383e-06
0.000261793323220004
-1.848630911388e-06
0.000263515278322395
-1.72195472422842e-06
0.00026512195011031
-1.60667143529595e-06
0.000266623013636545
-1.50106317508795e-06
0.000268026872832715
-1.40385886189302e-06
0.000269341574487145
-1.31470132987338e-06
0.000270574788606368
-1.2332138001244e-06
0.000271734016647282
-1.15922774226819e-06
0.000272825933882573
-1.09191693255628e-06
0.000273856007062489
-1.03007290853407e-06
0.00027482941853792
-9.73411194523425e-07
0.000275751150718135
-9.21731937225878e-07
0.000276626040763841
-8.74889788635778e-07
0.000277458816162171
-8.32775179640597e-07
0.000278253497179303
-7.94680781065203e-07
0.000279013490489493
-7.59993109472759e-07
0.000279742032746983
-7.28542041857868e-07
0.00028044232812408
-7.00295193192186e-07
0.000281117472363988
-6.75144044709841e-07
0.000281770575732089
-6.53103198973947e-07
0.000282404498726906
-6.33922807225713e-07
0.000283021549828966
-6.17050932548565e-07
0.000283623878012057
-6.02327971690348e-07
0.000284213653963554
-5.89775756663824e-07
0.000284793063672663
-5.79409429882798e-07
0.000285364340992314
-5.71277074619946e-07
0.000285929769025512
-5.6542763026056e-07
0.000286491626545372
-5.61857197472481e-07
0.000287051794569465
-5.60167433211642e-07
0.000287612707711719
-5.60912731105197e-07
0.000288175992733493
-5.63284238948111e-07
0.000288746172998108
-5.70179870347252e-07
0.000289322563825191
-5.76390054201793e-07
0.000289918906630544
-5.96342791220918e-07
0.000290518962467416
-6.00055489011312e-07
0.000291182085273835
-6.6312376379006e-07
0.000291800274323594
-6.18189380608312e-07
0.000292673908814405
-8.73636753305083e-07
0.000293174751560031
-5.00843451794199e-07
0.000294902715673862
-1.72796683482229e-06
0.000294099722138921
8.02993050925889e-07
-5.5709762258655e-06
0.000768690647619377
1.45909270312925e-05
0.000750624893691966
2.69776620333129e-05
0.000734966938309494
2.49357347133693e-05
0.000722270869370968
1.94348421327843e-05
0.000712482739735589
1.42290105560158e-05
0.000705210038483912
1.02089420959929e-05
0.000699930320079354
7.21430946312327e-06
0.000696182901250696
4.95316112203131e-06
0.000693611727116231
3.2378993614007e-06
0.000691947125364943
1.93510525028482e-06
0.000690990795292451
9.28998315082147e-07
0.00069058721375336
1.47319822171507e-07
0.000690611686458448
-4.56849445582173e-07
0.000690975292661776
-9.31251027287265e-07
0.000691614238806383
-1.3133652750838e-06
0.000692478997571263
-1.62440039445675e-06
0.000693529442635308
-1.87754604295514e-06
0.000694733991922103
-2.08615754756614e-06
0.00069606905140099
-2.26304751320753e-06
0.000697516549337969
-2.4160541011096e-06
0.000699061397294202
-2.54831126071256e-06
0.000700691835410159
-2.66474110620743e-06
0.000702399462700878
-2.77061396263795e-06
0.000704177560324214
-2.8685891917806e-06
0.000706021866901729
-2.96212065599641e-06
0.000707931329180487
-3.05537187327426e-06
0.000709906650129293
-3.15104512557947e-06
0.000711949962302335
-3.2516553877326e-06
0.000714064357322753
-3.35855984495141e-06
0.000716253946482111
-3.47322688843259e-06
0.000718523999753475
-3.59744686308898e-06
0.00072088122012069
-3.73356610832108e-06
0.000723333527534391
-3.8834210366941e-06
0.000725889764920762
-4.04824162082499e-06
0.000728560144284338
-4.2303345084859e-06
0.000731356666091862
-4.43280255857202e-06
0.000734293244991923
-4.65882117491225e-06
0.000737385874448627
-4.91178543471918e-06
0.000740653088037627
-5.19600533665107e-06
0.000744116507769192
-5.51678343904541e-06
0.000747801393491867
-5.88034111837422e-06
0.000751737380165806
-6.29419736404188e-06
0.000755959607063035
-6.76790678844387e-06
0.000760510092618453
-7.31358463928079e-06
0.000765439586339139
-7.94647733094979e-06
0.000770812225060955
-8.69093263710892e-06
0.000776707144354892
-9.57357106059008e-06
0.000783221428822289
-1.06262404348211e-05
0.000790482286468288
-1.19042506144424e-05
0.000798657876739551
-1.34838067247139e-05
0.000807972387877747
-1.54630236123928e-05
0.000818740714537425
-1.80259176807565e-05
0.000831415985333442
-2.14054997631593e-05
0.000846715916408756
-2.61908536779628e-05
0.00086580392310796
-3.30556700967085e-05
0.000890805802197178
-4.45179477845905e-05
0.000926909011572749
-6.50895960416684e-05
0.000969097478324974
-7.45193929542982e-05
0.00095258136843457
5.87259293188074e-05
0.000877851161412459
0.000160429892742133
0.0007506900959814
0.000227069749273348
0.000577465379355628
0.000274434882339286
0.000374309897163316
0.000293640950094601
0.000171813001980588
0.000268444778428055
1.00425332683662e-05
0.000198545470368916
-8.92187992749748e-05
0.000115045021180424
-0.000136160610361272
4.96573447581567e-05
-0.000151383215493795
9.6069748606101e-06
-0.000149933995668748
-1.09689710418317e-05
-0.000140781314190815
-1.91959814858666e-05
-0.000128156644569825
-2.16460203403965e-05
-0.000113879473961355
-2.23029079100968e-05
-9.9409781391014e-05
-2.20535349040091e-05
-8.65256021459652e-05
-2.0314143981526e-05
-8.03791720737268e-05
-1.04664722894511e-05
-8.56431717070066e-05
7.27503279505565e-06
-9.49228236420447e-05
1.11803817364324e-05
-0.000109680631718734
1.68160369004338e-05
-0.000140166570781012
4.25701179989632e-05
-0.000173795902705437
5.19545549779219e-05
-0.000190086476754125
2.19324621625571e-05
-0.000177502241111448
-4.9006024076946e-05
-0.000254188526202419
0.00011873059384285
-0.000334271684651
0.000128325180703841
-0.000380076549955463
7.99024572084292e-05
-0.00040785181045859
5.43605145491976e-05
-0.000422781170470243
3.36459050627726e-05
-0.000429514030564021
2.09505458352307e-05
-0.000429200262255267
9.3283391217019e-06
-0.000422991458398178
-3.41992332723428e-07
-0.000411510800519774
-9.61058364915782e-06
-0.00039547345173032
-1.7948728237167e-05
-0.00037518526942284
-2.57411124108145e-05
-0.000351097097042745
-3.26615157375539e-05
-0.000323655634167367
-3.88740042005058e-05
-0.00029338178880677
-4.41621670641437e-05
-0.000260771461789975
-4.85582925503231e-05
-0.000226293680074723
-5.2098762174614e-05
-0.000190404228109499
-5.48014012609241e-05
-0.000153538966518817
-5.66981762960061e-05
-0.000116110001867017
-5.78264405651777e-05
-7.84830480310802e-05
-5.82674502701018e-05
-4.09615891669454e-05
-5.81443697313049e-05
-3.80015715486972e-06
-5.7539102260133e-05
3.27534563662899e-05
-5.64986053334189e-05
6.84767608687174e-05
-5.51042393693329e-05
0.000103218097160448
-5.34172226477179e-05
0.000136858402633386
-5.14989690985759e-05
0.000169321421631405
-4.94784156500261e-05
0.000200550722831259
-4.73738713103356e-05
0.000230491281582425
-4.51826708674033e-05
0.000259106776964471
-4.29434525936885e-05
0.000286392474030389
-4.07170021173422e-05
0.000312359812931112
-3.8528720021931e-05
0.000337019515819187
-3.63704999487141e-05
0.000360396671722475
-3.42736255079995e-05
0.000382527012465469
-3.22547805392106e-05
0.000403449317362325
-3.03148479216427e-05
0.000423202754513871
-2.84518174646872e-05
0.000441835208826657
-2.6683375507296e-05
0.000459397132556259
-2.50106213797409e-05
0.000475934674107896
-2.34205717195026e-05
0.00049149676545778
-2.1919880026557e-05
0.000506133922312438
-2.05102070125627e-05
0.000519894859337186
-1.91853180552308e-05
0.000532825263074643
-1.79378371906308e-05
0.000544971681905153
-1.6770207696685e-05
0.000556380198448979
-1.56805566143562e-05
0.00056709355826892
-1.46606084135843e-05
0.000577152098322976
-1.37057069657838e-05
0.000586595584351876
-1.28154441984382e-05
0.000595462850969013
-1.19878329161252e-05
0.000603789590622574
-1.12157762299904e-05
0.000611609327140377
-1.04954847800651e-05
0.000618954061384588
-9.82466346074747e-06
0.00062585497498908
-9.20219972925433e-06
0.000632341288735584
-8.6240875357618e-06
0.000638439776673395
-8.08561887888824e-06
0.000644175611077344
-7.58446481188259e-06
0.000649572890013102
-7.11923314955289e-06
0.000654654812857947
-6.68859380242071e-06
0.00065944275303954
-6.28900288097612e-06
0.000663956333273992
-5.91743864149256e-06
0.000668214003828319
-5.57237144285764e-06
0.000672233219841046
-5.25242937719459e-06
0.00067603077378848
-4.95678128237986e-06
0.000679622359096636
-4.68350182697177e-06
0.000683022177034785
-4.42989047590308e-06
0.000686243485279161
-4.19471905465812e-06
0.000689298757026945
-3.97700335221585e-06
0.000692199883846744
-3.77601625588459e-06
0.000694958295021608
-3.59118605363344e-06
0.000697584526930986
-3.42091236585742e-06
0.000700088189000429
-3.2636549019967e-06
0.000702478247773015
-3.11860051785712e-06
0.000704763208280758
-2.98525544712767e-06
0.000706951169891462
-2.86310538609091e-06
0.000709049988471045
-2.75192154384353e-06
0.000711067103183963
-2.6510372581638e-06
0.00071300926877682
-2.55921628692425e-06
0.000714882774405665
-2.475833300605e-06
0.000716693608000888
-2.4006090745687e-06
0.000718447540566129
-2.33334159498593e-06
0.000720150211311688
-2.27394746891452e-06
0.00072180719836612
-2.22241410446435e-06
0.000723423945325096
-2.1786036918582e-06
0.000725005569705999
-2.14179096484677e-06
0.000726557269559219
-2.11261199594941e-06
0.000728084013124476
-2.09002669675445e-06
0.000729591891548361
-2.07805775424032e-06
0.000731085705410875
-2.07020286729149e-06
0.000732575575753841
-2.08621318633402e-06
0.000734063066615105
-2.08754595074827e-06
0.000735576027198335
-2.17608582733945e-06
0.000737090121137673
-2.13228387173752e-06
0.000738725088585111
-2.50860748674608e-06
0.000740276160419575
-2.05191629817393e-06
0.000742439840274382
-3.89165040844982e-06
0.000743593336776295
-3.50504091033755e-07
-1.04708058529585e-05
0.00106239243831632
2.58972991512138e-05
0.00104888344884419
4.04866511631482e-05
0.00103596802610449
3.78511570276572e-05
0.00102414465162353
3.12582161886009e-05
0.00101379648569549
2.4577176045716e-05
0.00100507891602807
1.89265113621676e-05
0.000997907477498381
1.43857475518693e-05
0.000992097305151357
1.07633331071511e-05
0.000987452029446017
7.88317462832264e-06
0.000983789632010647
5.59750235652988e-06
0.000980956808757423
3.76182112705798e-06
0.000978825939565428
2.27818869458233e-06
0.000977286054917863
1.08303474058169e-06
0.000976239755206098
1.15048348149992e-07
0.000975607592973795
-6.81203525397084e-07
0.000975329064007771
-1.34587178394009e-06
0.000975354852442965
-1.90333496738112e-06
0.000975644505582983
-2.37581104745673e-06
0.000976165511157379
-2.78405357524467e-06
0.000976891380967027
-3.14192427260864e-06
0.000977799723985897
-3.45665476258155e-06
0.000978872269338655
-3.73728682619905e-06
0.000980094426660755
-3.99277176077536e-06
0.000981455096807652
-4.22925970624407e-06
0.000982946186189975
-4.45321050779139e-06
0.000984561431426472
-4.67061746603253e-06
0.00098629642523649
-4.88603939584585e-06
0.000988148830055311
-5.10406053743402e-06
0.000990118016889593
-5.32774711916919e-06
0.000992204974778035
-5.56018506623422e-06
0.000994412287710131
-5.80476019246337e-06
0.000996744289819521
-6.0655684477447e-06
0.000999206901947726
-6.34603348524681e-06
0.00100180738573501
-6.64872556026054e-06
0.00100455463153943
-6.97758050633595e-06
0.00100745948680531
-7.33765788485426e-06
0.00101053491448885
-7.73424885890772e-06
0.00101379616835579
-8.1730392700977e-06
0.00101726118720681
-8.66102392310357e-06
0.001020951091667
-9.20668780519643e-06
0.00102489072606317
-9.8199749375677e-06
0.00102910936254513
-1.05128337627679e-05
0.00103364175465515
-1.13002980500633e-05
0.00103852935724348
-1.220118727901e-05
0.00104382228655426
-1.32394057815594e-05
0.00104958240387194
-1.44510503670239e-05
0.00105588445708142
-1.58756238847434e-05
0.00106282049306733
-1.75622775365478e-05
0.00107051126598065
-1.95950239301877e-05
0.00107911674945145
-2.20892921538361e-05
0.00108884387085032
-2.51901460628501e-05
0.0010999747002617
-2.9156749556845e-05
0.00111292031364483
-3.43511146771919e-05
0.00112830890459132
-4.15794472505747e-05
0.00114716259712325
-5.19093646684693e-05
0.00117121677809655
-6.85721316119749e-05
0.00120444728883805
-9.83201091379074e-05
0.00124522348801642
-0.000115295595299908
0.00124896096034419
5.498845461059e-05
0.00120919535563995
0.000200195494132568
0.00111904914394539
0.000317215958858541
0.000967997217950966
0.00042548680552876
0.000752198866128579
0.000509439300648259
0.000490033935653553
0.00053060970690263
0.000230739302881483
0.000457840103335701
3.55576513505553e-05
0.000310226671072126
-7.70566658534896e-05
0.000162271662697235
-0.000133084695438836
6.56350029397073e-05
-0.000158540370634249
1.44867027320484e-05
-0.000167809758534031
-9.92659503072659e-06
-0.000166605042302834
-2.28507412623284e-05
-0.000157638917362114
-3.12690354297693e-05
-0.000145021220079782
-3.46712382634502e-05
-0.000133698434178902
-3.16369369126121e-05
-0.000130052016043921
-1.41128933800175e-05
-0.000138695122237044
1.59181260409474e-05
-0.000155116745622221
2.7602008720052e-05
-0.000180043308101324
4.17425856294014e-05
-0.00021769216908614
8.02189860445495e-05
-0.000254000353240434
8.82627310708367e-05
-0.000278125290770096
4.60574049432987e-05
-0.000294608137805441
-3.25231784631562e-05
-0.000366585218201585
0.0001907076767196
-0.000426593616018659
0.000188333579946955
-0.000454707620743816
0.000108016462496385
-0.000469624338959765
6.92772335882765e-05
-0.00047494898449778
3.89705503532044e-05
-0.000473682554760858
1.96841159198459e-05
-0.000466529033386167
2.17481736314595e-06
-0.000454317544253922
-1.25534819361377e-05
-0.000437374130414469
-2.65539976086774e-05
-0.000416013805469922
-3.93090534805975e-05
-0.000390563388791754
-5.11915289278026e-05
-0.00036143452772425
-6.17903769149751e-05
-0.000329060160651174
-7.12483710012119e-05
-0.000293928448993432
-7.92938787568043e-05
-0.000256516845190175
-8.59698960933397e-05
-0.000217279079407167
-9.13365279553856e-05
-0.000176658289350665
-9.54221910719531e-05
-0.000135079669790807
-9.82767957806538e-05
-9.294473472496e-05
-9.99613753538065e-05
-5.06094557273915e-05
-0.000100602729090024
-8.37163878506948e-06
-0.00010038218635522
3.35004747293326e-05
-9.94112154997396e-05
7.47667753803314e-05
-9.77649056516183e-05
0.000115227439165017
-9.55649027833503e-05
0.000154722719584538
-9.2912502712343e-05
0.000193130498602467
-8.99067476316093e-05
0.00023036780608145
-8.67157227304789e-05
0.000266373179292213
-8.33792439298565e-05
0.000301090600760873
-7.99000918892262e-05
0.000334480799604469
-7.63336507756149e-05
0.000366533250789235
-7.27694528143939e-05
0.000397253999798801
-6.9249468338255e-05
0.000426650921245096
-6.57674208781623e-05
0.000454742865807976
-6.23655693793458e-05
0.000481559560632296
-5.90714748368526e-05
0.000507134807086196
-5.58900937127149e-05
0.00053150320794843
-5.28202178124792e-05
0.000554706146040195
-4.98863129778766e-05
0.000576788352296187
-4.70928271445147e-05
0.000597792046839633
-4.44242656800261e-05
0.000617760852191485
-4.18886849063072e-05
0.000636740036744287
-3.94893910106934e-05
0.000654774058686141
-3.72193395360288e-05
0.000671905037387779
-3.50688153614117e-05
0.000688175355901071
-3.30405257597495e-05
0.000703627297152985
-3.11324973636795e-05
0.000718300898887162
-2.93342097157412e-05
0.000732234091277978
-2.76388988888484e-05
0.00074546408766549
-2.60454401786856e-05
0.000758027465776133
-2.45512105943912e-05
0.000769958600720946
-2.31469107920786e-05
0.000781290004250575
-2.18268879070623e-05
0.000792052795168858
-2.05874540156224e-05
0.000802277377308512
-1.9426781489225e-05
0.000811992742487456
-1.83394523658156e-05
0.00082122598332692
-1.73188593578358e-05
0.000830002739675054
-1.63612208245914e-05
0.000838347646376735
-1.54641395097276e-05
0.000846284590742594
-1.46255378467843e-05
0.00085383608489924
-1.38404967162887e-05
0.000861023198145048
-1.31045515781779e-05
0.000867865895324028
-1.24150683210152e-05
0.000874383209155005
-1.17697429094751e-05
0.000880593551247067
-1.11671230945925e-05
0.000886514448747892
-1.06043990421486e-05
0.000892162210631356
-1.00776521028461e-05
0.000897552234724577
-9.58474288099134e-06
0.000902699125851754
-9.12389424755066e-06
0.000907616886741455
-8.69377689899766e-06
0.000912319054670502
-8.29335377140402e-06
0.000916818414662944
-7.92027212978957e-06
0.000921126925297247
-7.57216534055004e-06
0.000925255877302947
-7.24755231375995e-06
0.000929216032772089
-6.9454107360492e-06
0.000933017695161939
-6.66476758424028e-06
0.000936670861585393
-6.40508779932923e-06
0.000940185128788669
-6.16530427269373e-06
0.000943569485227909
-5.94357255335168e-06
0.000946832424948438
-5.7387728019144e-06
0.000949982057200767
-5.55024112378284e-06
0.000953026189755465
-5.37747385411562e-06
0.000955972413453124
-5.22017090729881e-06
0.000958828187604623
-5.07818782432737e-06
0.000961600801643619
-4.95121738576641e-06
0.000964297251362239
-4.83824005009565e-06
0.000966924469320586
-4.73982951780128e-06
0.000969489213881844
-4.65477043736053e-06
0.000971998834770153
-4.58767825223694e-06
0.000974460125710162
-4.53149304713208e-06
0.000976882879949437
-4.50896750013719e-06
0.000979272848204646
-4.47751394841054e-06
0.000981650364223636
-4.55360301253346e-06
0.000984008793781751
-4.4907138744592e-06
0.000986422586216107
-4.92240242299499e-06
0.000988787168445003
-4.41649928378543e-06
0.000991528285654905
-6.63277034748619e-06
0.000993804422632176
-2.62664152679683e-06
-1.47900440071689e-05
0.00124253412277761
3.16368341488361e-05
0.00123495546276122
4.80653108853171e-05
0.00122692374618042
4.58828732483324e-05
0.00121865573678503
3.95262252254829e-05
0.00121060963062222
3.26232818385517e-05
0.00120311957549343
2.64165661530146e-05
0.00119633828274161
2.11670399309818e-05
0.0011903177578901
1.67838576532007e-05
0.00118505244314411
1.31484890032776e-05
0.00118050132453266
1.01486206897155e-05
0.00117661390139943
7.6492438865829e-06
0.00117333828169784
5.55380812552996e-06
0.00117061928638607
3.80202966185211e-06
0.00116840256612055
2.33176832866521e-06
0.00116663695928703
1.08440290098343e-06
0.0011652731921986
1.78950044334178e-08
0.00116426743091296
-8.97574093082684e-07
0.00116358306804692
-1.69144848388609e-06
0.00116318907111616
-2.39005705332441e-06
0.00116305921982103
-3.01207328075194e-06
0.00116317086751488
-3.56830285981922e-06
0.00116350480815007
-4.07122776825559e-06
0.00116404474058395
-4.5327045911046e-06
0.00116477750423958
-4.96202366799158e-06
0.00116569273496971
-5.36844162793473e-06
0.0011667816145533
-5.75949734522038e-06
0.00116803710469763
-6.14152992144401e-06
0.00116945425110019
-6.52120721345306e-06
0.00117102988665806
-6.9033830402362e-06
0.00117276254821647
-7.29284686296403e-06
0.00117465246597467
-7.69467827732666e-06
0.00117670172896542
-8.11483162699631e-06
0.00117891418084403
-8.55848562555832e-06
0.00118129522966518
-9.02977450526697e-06
0.00118385207901312
-9.53443001020468e-06
0.0011865939898372
-1.00795687570271e-05
0.00118953241514438
-1.06726741620018e-05
0.00119268115479767
-1.13217788960688e-05
0.00119605670817877
-1.20365770813489e-05
0.00119967873627897
-1.2828715827822e-05
0.00120357058145646
-1.3711819636193e-05
0.00120775993122765
-1.47021834668854e-05
0.00121227979255628
-1.58201586807728e-05
0.00121716957870769
-1.7090973476098e-05
0.00122247718085927
-1.85470072350818e-05
0.00122825702584365
-2.02308956980228e-05
0.00123457422253878
-2.2192820282647e-05
0.0012415154663261
-2.45035222546022e-05
0.00124919598781187
-2.72755457649264e-05
0.00125776625388558
-3.06595598465001e-05
0.00126740865010115
-3.48325431529389e-05
0.00127837539841536
-4.012349989482e-05
0.00129104593123295
-4.70216487647803e-05
0.00130598080612924
-5.65143243044802e-05
0.00132407825973651
-7.00068199679466e-05
0.00134678093798843
-9.12748122227466e-05
0.00137725078311866
-0.00012878995621735
0.00141491796212049
-0.0001529627769379
0.00142655174907141
4.33546656713078e-05
0.00140636602705526
0.00022038121337557
0.00134829776293629
0.000375284221219545
0.001239322839475
0.000534461726683272
0.00106026232696596
0.000688499812155226
0.000801967321356126
0.000788904710972217
0.000495405886522499
0.000764401538339598
0.000215637543761295
0.000589995012667127
2.49032896986334e-05
0.000353005917268055
-7.95397415644912e-05
0.000170078033121404
-0.000133108293796581
6.80552539358183e-05
-0.000160890642801546
1.78557530202806e-05
-0.000173696131851148
-1.0045255361082e-05
-0.000175132681687036
-2.98324873964349e-05
-0.00016969415750578
-4.01097666469034e-05
-0.000163778632613048
-3.75524671178179e-05
-0.00016434264760574
-1.35488804236492e-05
-0.000175314663814361
2.68901323401218e-05
-0.000195029862625422
4.73172103590232e-05
-0.000223495335925522
7.02080489929161e-05
-0.00026094401707914
0.000117667672220546
-0.00029535583842853
0.000122674546995242
-0.000322405710173753
7.31072801606546e-05
-0.000352681920781521
-2.24696867722352e-06
-0.000412056022513651
0.000250081780092263
-0.000453481931075292
0.000229759489482548
-0.000472307510349065
0.000126842042119093
-0.000482139217004621
7.91089407502139e-05
-0.000484146805517535
4.09781387032721e-05
-0.000480182573528726
1.57198838044412e-05
-0.000470739237116158
-7.26851928922176e-06
-0.000456328722149231
-2.69639971997559e-05
-0.000437199346569908
-4.56833732597016e-05
-0.000413651034509074
-6.28573657254933e-05
-0.000386029352217235
-7.88132111178928e-05
-0.000354735059911094
-9.30846692879669e-05
-0.000320197219668885
-0.000105786211076054
-0.000282893417802023
-0.000116597680645012
-0.000243298805782289
-0.000125564507955281
-0.000201866370044131
-0.000132768963691773
-0.000159039046888615
-0.000138249514079055
-0.000115242009976308
-0.000142073832645931
-7.08762611981925e-05
-0.000144327123964455
-2.62974686066688e-05
-0.000145181521572768
1.81910153641251e-05
-0.000144870670135683
6.23169758480058e-05
-0.000143537175818046
0.000105841076176365
-0.000141289005780855
0.000148564299155396
-0.000138288125537365
0.000190326655605085
-0.000134674858946656
0.00023100421016188
-0.000130584301891435
0.000270510068671268
-0.000126221580994888
0.000308779847708054
-0.000121649022601997
0.000345757033156309
-0.000116877277060056
0.000381402339052376
-0.000111978956260756
0.000415704382715078
-0.000107071496171594
0.000448667972852978
-0.000102213058042372
0.0004803006685661
-9.74001162649745e-05
0.000510620211917244
-9.26851122944974e-05
0.000539655443364269
-8.81067059490456e-05
0.000567439466246825
-8.36741161741538e-05
0.000594006364706973
-7.93871159433138e-05
0.000619396367723055
-7.52763155960693e-05
0.00064365318778356
-7.13496468881037e-05
0.000666818551779123
-6.75896292989099e-05
0.000688935015179399
-6.40051479993884e-05
0.000710046736642208
-6.06011121119323e-05
0.000730197254483328
-5.73698570746129e-05
0.000749427900864827
-5.4299461393948e-05
0.000767779939746752
-5.13925643439297e-05
0.000785294524245465
-4.86470815293913e-05
0.000802010804150264
-4.60504893327024e-05
0.000817965798968
-4.35938933941922e-05
0.000833195650305791
-4.1275291243029e-05
0.00084773583175634
-3.90913917538121e-05
0.000861619843893198
-3.70309226699113e-05
0.000874879325179043
-3.50863689195083e-05
0.0008875444963302
-3.32526249188057e-05
0.000899644810442422
-3.15270953414953e-05
0.000911208424833294
-2.9903066516713e-05
0.000922261740346013
-2.83721746217779e-05
0.000932829716718147
-2.69291969642733e-05
0.000942936306515277
-2.55707290694437e-05
0.00095260472835195
-2.42939594590242e-05
0.000961856967828384
-2.30927359677131e-05
0.000970713678854535
-2.19612623869269e-05