/*--------------------------------*- C++ -*----------------------------------*\
| =========                 |                                                 |
| \\      /  F ield         | OpenFOAM: The Open Source CFD Toolbox           |
|  \\    /   O peration     | Version:  2112                                  |
|   \\  /    A nd           | Website:  www.openfoam.com                      |
|    \\/     M anipulation  |                                                 |
\*---------------------------------------------------------------------------*/
FoamFile
{
    version     2.0;
    format      ascii;
    arch        "LSB;label=32;scalar=64";
    class       volVectorField;
    location    "424";
    object      U;
}
// * * * * * * * * * * * * * * * * * * * * * * * * * * * * * * * * * * * * * //

dimensions      [0 1 -1 0 0 0 0];

internalField   nonuniform List<vector> 
36000
(
(0.14376279595658 2.41791716192478e-06 0)
(0.141683823895235 0.000116993228825936 -2.65679628309574e-22)
(0.137110182061806 9.2335641831402e-05 2.6880719576139e-22)
(0.132960312405999 3.83959335543936e-05 0)
(0.130230913807004 7.63222326995722e-06 -5.59341445039139e-22)
(0.128509275478524 -3.45336805198603e-06 5.62178194034214e-22)
(0.12736274773217 -8.08055128010813e-06 0)
(0.12661338219692 -1.12847004372229e-05 0)
(0.126169845905529 -1.33746380863395e-05 0)
(0.125953277388688 -1.44599836330364e-05 0)
(0.12590412008504 -1.49473198809677e-05 0)
(0.125979845853919 -1.5074785876716e-05 -1.15194439859587e-21)
(0.126153982288579 -1.49990688590855e-05 1.15061646080023e-21)
(0.126403369378802 -1.48121676151386e-05 4.73990376425878e-15)
(0.126710968988457 -1.4575645664418e-05 -4.73314030341539e-15)
(0.127064943669824 -1.42654863887896e-05 -1.16118901554936e-21)
(0.127455890515646 -1.38669717575595e-05 -6.74691747813082e-24)
(0.127876290754522 -1.34337833880757e-05 2.31526007795797e-21)
(0.128321051392949 -1.30212986583833e-05 0)
(0.128786965760015 -1.26271506795481e-05 -2.32969816703254e-21)
(0.12927124508427 -1.22179206330339e-05 -8.14037744649538e-24)
(0.129771486134261 -1.18114729605313e-05 -8.55463894749939e-24)
(0.130286158895069 -1.14278157825894e-05 -8.99407347173332e-24)
(0.130814588773989 -1.10590540437273e-05 2.33920454859718e-21)
(0.131356262089091 -1.07132811953776e-05 0)
(0.131911385273634 -1.04002972168444e-05 0)
(0.132480628351549 -1.0119999336613e-05 2.36750268806535e-21)
(0.133065138457386 -9.87983001048402e-06 -4.73793880057434e-21)
(0.133666383200609 -9.67354774667202e-06 2.37034588781961e-21)
(0.134286045485783 -9.49976882396451e-06 2.39103975310042e-21)
(0.134926045285949 -9.36122656186406e-06 -4.78641624213204e-21)
(0.135588707488892 -9.26497126264365e-06 2.3952352891168e-21)
(0.136276760007864 -9.20904827763625e-06 0)
(0.136993113857246 -9.18612838836224e-06 0)
(0.137740969858642 -9.20484153483607e-06 4.88563176146398e-21)
(0.138524092967426 -9.27777568886998e-06 -4.8744016510094e-21)
(0.139346893909703 -9.41142435500144e-06 0)
(0.140214401636648 -9.61155304596825e-06 0)
(0.141132385967414 -9.89179675272104e-06 0)
(0.14210759227139 -1.02703647758536e-05 0)
(0.143147934653342 -1.0767084594802e-05 0)
(0.144262717801007 -1.14074871664993e-05 0)
(0.14546296462221 -1.22279894429377e-05 5.14230805967233e-21)
(0.146762016791837 -1.32794898809428e-05 -5.12360157202139e-21)
(0.14817584173441 -1.46247242193766e-05 0)
(0.149724854769526 -1.64024675970398e-05 -5.28102005603323e-21)
(0.151435052788606 -1.87141188954197e-05 5.25608949767762e-21)
(0.153338226540855 -2.16882651358256e-05 0)
(0.15547519347556 -2.56596545214095e-05 -5.45436583412099e-21)
(0.157902873189775 -3.10836307109467e-05 1.0940338763252e-20)
(0.160692257120604 -3.83949409402306e-05 -5.48026151640187e-21)
(0.163956887290488 -4.91532363336548e-05 0)
(0.167826138251937 -6.4108585167646e-05 -5.76394644051012e-21)
(0.172596318065473 -8.97425544009547e-05 5.69036364997251e-21)
(0.178507861140712 -0.000126019982851369 5.96610558801947e-21)
(0.186658262921079 -0.000210248287769308 -5.83630521924274e-21)
(0.19749264057191 -0.000333335351594006 -6.19771611291145e-21)
(0.217364932523076 -0.000990248257419902 5.99048931388779e-21)
(0.216506352181665 -0.00520851634123244 0)
(0.184537546225231 -0.0102203540777346 -1.50629487210667e-17)
(0.135963050810385 -0.0127883968300689 -7.78223905857684e-21)
(0.0848179154230943 -0.0119971087201247 1.79654435864479e-20)
(0.0371169044198254 -0.00839179762067759 -9.56580815499174e-21)
(-0.00178129911844205 -0.00316596956033256 0)
(-0.0272147844127549 0.00227762361199131 1.69238397571971e-17)
(-0.0397385445591801 0.00669327415861925 7.76097024376249e-21)
(-0.0425857907208236 0.00929305578142839 -2.83055802860363e-17)
(-0.0408669741712901 0.0106194266827199 -2.6807991470338e-17)
(-0.036518303119857 0.0109395628075031 2.58721281103377e-17)
(-0.0314238489809003 0.0106727737617628 6.11468538076711e-21)
(-0.0266552318192604 0.0101406980217238 -3.18460506699906e-21)
(-0.0224611302068038 0.00945479000025451 -3.08825558836338e-21)
(-0.0186418514949247 0.00861096488240456 0)
(-0.0149364903933638 0.00759337032496285 0)
(-0.0120334878274894 0.00684410216855272 3.07043675381781e-21)
(-0.0114916608361405 0.00720942961970626 -9.21991427875011e-21)
(-0.0121063190865338 0.00817917919541584 6.11325203205427e-21)
(-0.0124947064604801 0.0080598703141768 1.26775336631714e-20)
(-0.0151140967096153 0.00865528755324764 -2.60288352274371e-20)
(-0.0221404349661846 0.0103450278741384 2.68542859109109e-17)
(-0.0263340538452841 0.0101543489775094 -2.70359884255226e-17)
(-0.0198102071614666 0.0056247246889237 -5.51972057353614e-17)
(-0.0168212650889674 0.000825385539366398 -9.20970173667272e-19)
(-0.0397712628973014 0.000561421640329399 -2.51161553208469e-23)
(-0.055695723778851 0.000506733134126999 1.20375151635013e-20)
(-0.0672227513643237 0.000495155867054068 0)
(-0.0760883564319294 0.000442198142973335 -1.01966231511898e-20)
(-0.0823766647807864 0.000442148170418968 9.87160132604393e-21)
(-0.0870783380356484 0.000426702407042197 5.32987052841011e-16)
(-0.0900814473189539 0.000417779618599015 4.94043997622584e-16)
(-0.0916222987222719 0.000392403864661093 -7.88347665352131e-21)
(-0.0915822459400903 0.000363444701762605 0)
(-0.0900993042146906 0.000331607771724954 0)
(-0.0873169191867877 0.000300831770861922 -5.20523992853655e-21)
(-0.0833611962433863 0.000267319031632906 2.9051937429329e-16)
(-0.0783575197530188 0.000234770289036348 2.52674842961682e-16)
(-0.0724704490202446 0.000203695573252024 0)
(-0.0658515415869385 0.000174729101079985 0)
(-0.0586523922114555 0.000148439793441371 -2.79578646531485e-16)
(-0.0510209735797122 0.000125253471409706 -3.10689104801969e-16)
(-0.0431011350076296 0.000105596465337139 -6.77573472490667e-17)
(-0.0350272449056452 8.95329806680232e-05 2.37335931285355e-22)
(-0.0269128044194255 7.65106743078876e-05 -2.45494155425849e-22)
(-0.0188528045173156 6.55730054833353e-05 -8.63594167815698e-22)
(-0.010929565270096 5.10940255295041e-05 8.96145143016706e-22)
(-0.00321146465119523 3.34377805562335e-05 0)
(0.00425247438508583 2.51207984200948e-05 0)
(0.0114226787422039 2.51106375890786e-05 1.43004682162162e-16)
(0.0182711483159026 2.51139936341268e-05 1.5780060773483e-16)
(0.0247825809795283 2.54963891388861e-05 -2.94159420606642e-21)
(0.0309450936386834 2.64715245109808e-05 2.8776979153731e-21)
(0.0367492328440736 2.77002367155896e-05 0)
(0.0421963772804414 2.87527520067881e-05 0)
(0.047296697867817 2.96052317811062e-05 0)
(0.0520586549398681 3.05060338415019e-05 0)
(0.0564931407511841 3.1124173511619e-05 3.26714384860628e-21)
(0.0606158003813429 3.14312608098843e-05 -3.22674001111702e-21)
(0.0644433807692063 3.15366891083347e-05 1.8953689538708e-15)
(0.0679907183360582 3.15121635144299e-05 -1.87599747417723e-15)
(0.071274455984042 3.11795090874594e-05 0)
(0.0743131772714872 3.06077909035338e-05 0)
(0.077122707257361 2.9990846965584e-05 0)
(0.0797181274479804 2.92126362189027e-05 0)
(0.0821153655360095 2.8270768985248e-05 2.90927973109099e-21)
(0.0843296953132156 2.72548869796163e-05 -2.89234050029019e-21)
(0.0863742305505069 2.62303246690479e-05 0)
(0.0882616866339765 2.51271952749651e-05 0)
(0.0900050035774467 2.39594705427612e-05 0)
(0.0916157765634006 2.281231058595e-05 -2.56148016135238e-21)
(0.0931040462385433 2.16938176982675e-05 2.55198219063751e-21)
(0.0944794555293079 2.0565119832366e-05 1.20934805877931e-21)
(0.0957517010148383 1.9425979019768e-05 -1.20557572150929e-21)
(0.0969293446162982 1.83389415641756e-05 0)
(0.0980198423335538 1.73015412580684e-05 0)
(0.0990300975910696 1.62980111430834e-05 -1.06953900231733e-21)
(0.099966958406376 1.53099096512028e-05 1.06714316116503e-21)
(0.100836824941727 1.43616994169373e-05 0)
(0.10164516151804 1.34765293538284e-05 9.69521209319374e-22)
(0.102396831096029 1.26401176840374e-05 -9.67798595530314e-22)
(0.103096488326969 1.18362729038287e-05 0)
(0.103748749468008 1.10569473144388e-05 0)
(0.104357769385294 1.03238065552425e-05 1.02166532389876e-16)
(0.104927064876392 9.6434250515562e-06 9.87761979117056e-17)
(0.105459841389885 9.00206117556514e-06 -9.51078799437126e-17)
(0.105959149223999 8.39192211082264e-06 -9.18402414489698e-17)
(0.106427988320771 7.80376434491365e-06 -7.29075899135915e-22)
(0.106869180086296 7.24475362491157e-06 1.43007318871908e-21)
(0.107285082104243 6.7283333110964e-06 -7.01064698177013e-22)
(0.107677768406417 6.2447914919737e-06 0)
(0.108049213658694 5.78631589120251e-06 -6.23262306899829e-22)
(0.108401333397999 5.34693937006769e-06 7.26266501803203e-17)
(0.108736033478105 4.92155911473474e-06 6.97706124348525e-17)
(0.109055041075915 4.51915115261658e-06 5.73177847963431e-22)
(0.109359802372712 4.14398397278277e-06 0)
(0.109651602289932 3.78999507751604e-06 0)
(0.109931698865314 3.45046831254413e-06 2.40100697929205e-22)
(0.110201319679894 3.12257180887217e-06 -4.68899636413795e-22)
(0.110461690659393 2.8015880731383e-06 2.28810063533774e-22)
(0.110714004752044 2.48957226078179e-06 0)
(0.110959269314405 2.19433411480689e-06 0)
(0.111198347824155 1.91298814861981e-06 -4.45990245474388e-15)
(0.11143207767625 1.63997595380427e-06 4.45693913228904e-15)
(0.111661308320319 1.3718297134052e-06 0)
(0.111886908878142 1.10516834287452e-06 0)
(0.11210975804862 8.37675229888949e-07 0)
(0.11233079143931 5.67756828487369e-07 0)
(0.112550747374988 3.04263516294932e-07 0)
(0.11277062541583 2.85230719126714e-08 0)
(0.1129908269859 -2.33750097560297e-07 5.37382651726649e-23)
(0.113213433947604 -5.67014304355599e-07 -1.02688905489866e-22)
(0.113437113328248 -8.05085248844499e-07 9.3209909365657e-23)
(0.113669217466565 -1.37618463614028e-06 -4.69908993202183e-24)
(0.113897972194702 -1.34694746325453e-06 -3.94926318693415e-23)
(0.114157948852685 -2.98772573187732e-06 0)
(0.114378504629416 -1.17510490329861e-06 0)
(0.114738108300388 -8.10606571743223e-06 0)
(0.114848975231136 3.87950847513974e-06 0)
(0.115625804610538 -2.91129326484397e-05 0)
(0.115119040731939 3.92802759528823e-05 0)
(0.116914641973567 -0.000117629099761775 0)
(0.371763661022008 0.000310873776637367 0)
(0.363701447681893 0.000687957260418711 1.75123463543246e-22)
(0.355865520816355 0.000676376216621981 -1.78098580859244e-22)
(0.34893940341582 0.000518261127600207 0)
(0.343514399198942 0.000356522844692553 0)
(0.339493042398033 0.0002367876392726 0)
(0.336552075838202 0.000153948295206335 0)
(0.334433622172033 9.48261272159191e-05 0)
(0.332953049845569 5.16774687371515e-05 0)
(0.331964894172367 2.00244725296829e-05 0)
(0.331357226611532 -3.75580783630949e-06 0)
(0.331048070137209 -2.16894677280616e-05 0)
(0.330969380069739 -3.4956448169683e-05 -7.68355017793952e-22)
(0.331071132957713 -4.49724994007369e-05 3.22550134870717e-15)
(0.331318044910613 -5.28404882911901e-05 -3.2150237811125e-15)
(0.331683617839528 -5.91119967856614e-05 -1.52992378276582e-21)
(0.332146814365145 -6.40625696479876e-05 0)
(0.332690552020119 -6.80060087462756e-05 1.53320745842243e-21)
(0.333301698149715 -7.12758196388552e-05 4.87196429297903e-24)
(0.333970546494639 -7.40654944907324e-05 -1.52808092387205e-21)
(0.334689283511597 -7.6424589982158e-05 0)
(0.335451508657223 -7.84659472452941e-05 0)
(0.336252383050461 -8.03263867258141e-05 1.53545225754828e-21)
(0.337088633253052 -8.20617929978493e-05 6.19131462862465e-24)
(0.337957073446143 -8.3750636612993e-05 -3.07092063228061e-21)
(0.338856718114038 -8.55035873243626e-05 3.07498563272909e-21)
(0.339787622553394 -8.73909178880612e-05 -1.53629711941796e-21)
(0.340750496133544 -8.94772447233017e-05 -1.54647967728974e-21)
(0.341746580343175 -9.17910871023764e-05 1.54186741773298e-21)
(0.342777606272026 -9.43639026552438e-05 0)
(0.343845796859641 -9.72384928027589e-05 0)
(0.344954012127038 -0.000100476037441213 3.12504371782492e-21)
(0.34610578652038 -0.000104122049553595 -3.11545679190684e-21)
(0.347305136227995 -0.000108202146468102 0)
(0.34855659256825 -0.000112776069901558 -3.15863132549982e-21)
(0.349865441522602 -0.000117929488076305 3.14835420824288e-21)
(0.351237874267885 -0.000123749113047667 0)
(0.352681033275944 -0.000130326113204443 0)
(0.354203144699782 -0.000137778808914447 0)
(0.355813775592733 -0.000146255086756539 0)
(0.35752409245436 -0.000155928944929786 0)
(0.359347169472696 -0.000167011164297366 3.27683165997047e-21)
(0.361298382379172 -0.000179771645054862 -3.26260231800905e-21)
(0.363396125882089 -0.000194556019924881 0)
(0.365662245764124 -0.000211797109077408 -3.34989913346192e-21)
(0.36812396097098 -0.000232224212769649 3.33206163730762e-21)
(0.370815468213956 -0.000256616606614188 3.40866496930866e-21)
(0.37377836415169 -0.000285866141723077 -6.82879268627157e-21)
(0.377064839741999 -0.000321589487585476 3.41765540910242e-21)
(0.380745631358204 -0.000366031687097287 0)
(0.384909331146465 -0.000422065083643697 0)
(0.389690466918012 -0.000495326304264652 0)
(0.39524284537445 -0.000592507126406565 0)
(0.401892434992363 -0.000731877207471916 0)
(0.409910867311749 -0.000932326513136036 0)
(0.420428952088363 -0.00127399774164995 0)
(0.433763271195512 -0.00188839584070348 0)
(0.456506809554068 -0.00336963564220941 0)
(0.466206351678921 -0.0108469888739091 -2.17683427411429e-18)
(0.445830495923039 -0.021087073251012 4.58180981452914e-18)
(0.395759975981746 -0.0292538129146391 0)
(0.321535139644833 -0.0324151688294453 1.01850289855503e-17)
(0.2287730894113 -0.0289715396551714 0)
(0.127878092765374 -0.0189831374153435 -1.16663747005661e-20)
(0.0367328794075126 -0.00501735573989963 1.53989678783381e-20)
(-0.0269371119307436 0.00829929082715292 0)
(-0.0571384144413839 0.0166629306763859 7.96518183139763e-15)
(-0.0686202907022838 0.0216406303345047 7.45732392190623e-15)
(-0.0697749445323606 0.0241737627563877 -2.60119934707095e-17)
(-0.066031097784342 0.025158401653352 2.63917065282378e-17)
(-0.0601724802336382 0.0251321188217206 0)
(-0.0532676624274905 0.0242444313286504 0)
(-0.046019123696539 0.0226752967646355 2.95322049561265e-17)
(-0.039083120781506 0.0207543912617083 0)
(-0.0342029717459274 0.0197771970988295 3.14581884678925e-17)
(-0.0336689137428388 0.0214488631625479 -3.85776765641077e-21)
(-0.0358419139621148 0.0244713748727618 0)
(-0.0396880620967738 0.0251182574443684 0)
(-0.0484390466810655 0.0273034930414231 0)
(-0.0626375903036193 0.0302753282663549 0)
(-0.0703874121428646 0.0275451322507538 -2.82760118871157e-20)
(-0.068515121757814 0.01603436142168 -6.57923031255864e-16)
(-0.0767255770489773 0.00401530643565894 -6.65944861936481e-16)
(-0.116532380390853 0.00354949947793385 -5.59921601180175e-16)
(-0.139105565416373 0.00236660580917671 -4.94229852205214e-16)
(-0.152220973997924 0.00170023952074427 1.47179953788317e-20)
(-0.160128769046053 0.00113096747510786 0)
(-0.164011810691769 0.00078420434405376 5.86189562415816e-21)
(-0.165202554150743 0.0004535405036047 -3.26203940257285e-16)
(-0.163875654436006 0.000174115499550167 -2.94817640639111e-16)
(-0.16041552929443 -0.000101696878772203 4.63647903023384e-21)
(-0.155105556936117 -0.000353604744074171 2.3378289091815e-16)
(-0.148115367414394 -0.000590853382750191 4.24435525747488e-16)
(-0.13956586382704 -0.000803137006004184 1.90932442982897e-16)
(-0.129645827892252 -0.000996162216099807 -1.63412250600617e-16)
(-0.118536711762367 -0.0011622045984808 -2.82218221511987e-16)
(-0.106440783253658 -0.00130200274917843 -1.20439076285619e-16)
(-0.0935391563495702 -0.00141628681958429 -1.81367933771468e-21)
(-0.0800102994161638 -0.00150532667387786 1.53009527351032e-16)
(-0.0660251912520778 -0.00156985574169131 2.25318363388507e-16)
(-0.0517479858827453 -0.00161078882815159 1.10569862757847e-16)
(-0.0373298979056175 -0.00163046621659874 1.76624589525732e-17)
(-0.0228978793469089 -0.0016327576130512 0)
(-0.0085605432752856 -0.00162112177816017 4.68835386830989e-22)
(0.0055857906710203 -0.00159414713773508 -4.74561402847502e-22)
(0.0194569266495269 -0.00155273972382963 -5.08158286692653e-17)
(0.0329807199129742 -0.00149788181766945 -6.26967885390526e-17)
(0.0461008461204163 -0.00143255331896371 -7.15250292373898e-17)
(0.058782414589163 -0.00136494474552452 -7.92031025783827e-17)
(0.0710009646144897 -0.0012956424468144 -1.49421522287398e-21)
(0.0827352312048056 -0.00122446661580282 1.47594547325855e-21)
(0.0939660388424863 -0.00115262769345331 -1.63369993952033e-21)
(0.104685245638239 -0.00108204144430642 -9.98098671736238e-17)
(0.114896188718957 -0.00101346834896847 -2.04826792435e-16)
(0.124603045277143 -0.000946558414853384 -1.04281465435942e-16)
(0.133812112363334 -0.000882265103245173 -2.32752120985423e-23)
(0.142535234366178 -0.000821068312144026 3.4889917013156e-21)
(0.150787535451151 -0.000762914144902057 1.0515992754759e-15)
(0.15858367221661 -0.000707659559112214 -1.15239703278576e-15)
(0.165940058237373 -0.000655812367448738 -1.04830266908518e-16)
(0.172876171524234 -0.000607357239325115 -3.42294444181327e-21)
(0.1794106245964 -0.0005617999256977 1.82213560127597e-23)
(0.185561461673499 -0.000519293880415754 1.67765135223737e-21)
(0.191347728369764 -0.000479858114783513 0)
(0.19678879301112 -0.000443242406097232 0)
(0.201902699402488 -0.000409158584334382 -9.54681830910775e-17)
(0.206706982860532 -0.00037764716559418 -9.37079122271637e-17)
(0.211219515744817 -0.000348623832541265 0)
(0.215457485056031 -0.000321789400168735 -1.45824927133515e-21)
(0.219436775819733 -0.000296962098477132 -8.70605620163955e-17)
(0.223172605200926 -0.000274110236208245 -2.0280394788537e-19)
(0.226680144833282 -0.000253156931260279 1.94113110134835e-19)
(0.229973753398173 -0.000233856839489484 -8.05549784508203e-17)
(0.233066709303582 -0.000216069896648018 0)
(0.23597146590848 -0.000199715375927527 6.18121136378659e-22)
(0.238700139523752 -0.000184752100018832 -6.17963427008535e-22)
(0.24126438824289 -0.000171046744264514 0)
(0.243674963818518 -0.000158440733934696 0)
(0.245941786135865 -0.000146855796941716 0)
(0.24807423247609 -0.000136248910695552 0)
(0.250081402481906 -0.00012657885348942 -5.10796882771654e-22)
(0.251971886711326 -0.00011773282412602 -5.98639967308425e-17)
(0.253753537881993 -0.000109612952000261 -5.77421673365252e-17)
(0.255433629056877 -0.000102173222116418 5.58630989685931e-17)
(0.257019000568378 -9.53751507456551e-05 5.38222422244058e-17)
(0.258516219327448 -8.91959574564038e-05 -8.72663344001442e-22)
(0.259931555997874 -8.35781749374927e-05 4.28370980128371e-22)
(0.261270741469054 -7.843822961747e-05 0)
(0.262539023707282 -7.37402828851162e-05 0)
(0.263741309532004 -6.945959521163e-05 0)
(0.264882247155679 -6.5578501574279e-05 -4.2936120788947e-17)
(0.265966323708622 -6.20834307099895e-05 -4.11658918585862e-17)
(0.266997769939808 -5.89277903525177e-05 0)
(0.267980448712755 -5.60657652516193e-05 0)
(0.268917901923908 -5.3476008702771e-05 -3.68439943869852e-17)
(0.269813465661877 -5.1148664812028e-05 -3.52685059786982e-17)
(0.270670308942694 -4.90725234554877e-05 0)
(0.271491489569681 -4.72442318800855e-05 -3.22429493096887e-15)
(0.272279960322396 -4.56465075785459e-05 3.22370302056341e-15)
(0.273038446877835 -4.42432084237034e-05 0)
(0.27376944119865 -4.3017465309962e-05 0)
(0.274475282462067 -4.19648944360666e-05 1.04580472419229e-22)
(0.27515821365121 -4.10834057152345e-05 -1.04551851413095e-22)
(0.275820419611258 -4.03737552760461e-05 0)
(0.276464037149461 -3.98380420001151e-05 0)
(0.277091220778635 -3.94745267219746e-05 0)
(0.277703920789299 -3.92611483686758e-05 0)
(0.278304272948662 -3.92211243451441e-05 0)
(0.27889381309886 -3.93198042446139e-05 3.19931008387189e-23)
(0.279475560199143 -3.96945025017388e-05 -6.11499532193939e-23)
(0.280049436378376 -4.01194411629675e-05 2.79773964948537e-24)
(0.28062325265233 -4.12645926764879e-05 2.63444300148538e-23)
(0.281187559037872 -4.17984962359398e-05 2.07309606210643e-23)
(0.281774980504661 -4.5188362182558e-05 -2.82951466743709e-24)
(0.28232313305609 -4.38984586308164e-05 -1.78748245196609e-23)
(0.282994850465589 -5.67094651041868e-05 0)
(0.283443893947832 -4.09193839174207e-05 4.63380276315333e-24)
(0.284490336796713 -0.000102726282079604 -3.14344388333614e-24)
(0.284428387662199 1.89654910146679e-05 -1.48081748767053e-24)
(0.286573102268577 -0.000308660036657344 0)
(0.499851805280231 0.000760551097765366 -1.83812970747447e-15)
(0.494192279171786 0.00136708173587733 1.8551624024968e-15)
(0.48818109520728 0.00130427343468377 0)
(0.482259036881978 0.00105594884119588 0)
(0.476985133237504 0.000804775528259771 2.52803292332362e-22)
(0.472524247573547 0.000599969600864445 -2.54183715144117e-22)
(0.468827593183147 0.000440888713562602 -2.56596324917313e-22)
(0.465809030335865 0.000317257145121175 2.56703618232302e-22)
(0.46338134210164 0.000221186389318091 0)
(0.461455782236167 0.000146661155645159 -5.15634112692741e-22)
(0.459951322148341 8.812384432976e-05 1.02922796255603e-21)
(0.45880270713448 4.1755362045925e-05 -5.13305558392837e-22)
(0.457955077306553 5.10153791002021e-06 0)
(0.457360374303898 -2.40032758147662e-05 -2.02015308454791e-15)
(0.456975355309218 -4.74853317481693e-05 2.0100411261339e-15)
(0.456768418593566 -6.67312763890668e-05 -1.01774185695136e-21)
(0.456714478028168 -8.2600756881822e-05 0)
(0.45679267325358 -9.58478406864955e-05 1.01678800661226e-21)
(0.456986012155711 -0.00010715541440789 -1.01204794962369e-21)
(0.457280881480701 -0.000116967893565398 0)
(0.457665956701065 -0.000125500166339724 1.01312268834227e-21)
(0.458131769104952 -0.000133032319695318 -1.00879690513646e-21)
(0.458670693320492 -0.00013985254469884 0)
(0.459276643943861 -0.000146162310166055 1.01220907196117e-21)
(0.459945309379078 -0.000152149233306872 -2.02082536744547e-21)
(0.460673364501348 -0.000157989301924785 2.02195437603706e-21)
(0.461458315929512 -0.000163839484093389 -1.00949519177502e-21)
(0.462298596053456 -0.000169850691535016 0)
(0.463193519342378 -0.000176115028463674 0)
(0.464143191947709 -0.000182722984585169 2.0384702731289e-21)
(0.465148443329459 -0.000189776655791915 -4.07469562273817e-21)
(0.466210887304607 -0.000197403339913329 2.03629023928334e-21)
(0.467332948778612 -0.000205707738432825 0)
(0.468517722714945 -0.000214764493716128 -2.0616180592223e-21)
(0.469768966932583 -0.000224695098178941 -1.45314704644344e-23)
(0.471091270040812 -0.000235660610363206 2.0623849128407e-21)
(0.472490187824675 -0.000247829262711762 2.0871240622797e-21)
(0.47397230630268 -0.000261381144301739 -4.17736634037899e-21)
(0.475545355795393 -0.000276540008527777 4.19862185420464e-21)
(0.477218429916989 -0.000293579330984397 -2.1010468453565e-21)
(0.479002226802934 -0.000312820121143432 0)
(0.480909342866904 -0.000334648697949727 0)
(0.482954635283754 -0.000359552885918727 0)
(0.485155865290906 -0.000388146959207109 -2.18100802068349e-21)
(0.487534085599353 -0.000421203150648897 2.17144875671545e-21)
(0.490115493795156 -0.000459953332001128 0)
(0.492931793398932 -0.000505760800698942 2.24118231361668e-21)
(0.496021283261719 -0.000560182642443609 -2.22895684594168e-21)
(0.499432430674626 -0.000625933213014646 0)
(0.503230566749043 -0.000706839047426184 2.31907801180828e-21)
(0.507499022708907 -0.000807691154315612 -2.30179981340192e-21)
(0.512354041083048 -0.000937343969150468 0)
(0.517934423080579 -0.00110766510154414 -2.42274888883196e-21)
(0.524518020961622 -0.00134613648724711 2.39362780368671e-21)
(0.532353085615229 -0.00168730280896808 0)
(0.542348345717642 -0.00224406434375838 0)
(0.554791439225119 -0.00323609780321297 0)
(0.574489642296168 -0.00541134732147759 0)
(0.587677426583448 -0.0146450526015278 1.49060209512806e-18)
(0.581083935735437 -0.0275886959559156 1.19768019153882e-20)
(0.5503986860444 -0.0392551740325051 -1.99268454898568e-22)
(0.493621630522628 -0.0464788051323629 -6.37820542604511e-21)
(0.406515334085678 -0.0467660085506855 -6.46298830380987e-18)
(0.290573239599207 -0.0385507300972499 0)
(0.161734250335408 -0.0228851548187221 0)
(0.0496772057545541 -0.00462200384191794 -8.6093901301949e-18)
(-0.017860919935904 0.00909723854405675 -4.98979433970594e-15)
(-0.0517143905674815 0.0179538893121866 -4.63351122027536e-15)
(-0.0670973992570292 0.0238962200750261 -7.85160202232238e-21)
(-0.0730269181769046 0.0280305042988251 -1.65266426014007e-17)
(-0.0736807951608235 0.030712029328307 4.3469617417674e-21)
(-0.0701709472134652 0.0316904483027562 -4.89676711443865e-21)
(-0.064029239497594 0.0312484182574434 -2.16129214244547e-17)
(-0.0574130524307217 0.0302826183357767 -2.31444786145319e-17)
(-0.0530833026024769 0.0307134262058425 -2.46345108921558e-17)
(-0.0533673496262707 0.0342843549953618 -3.00714329163605e-21)
(-0.0570474352980132 0.0392968376984611 -1.1246309584585e-20)
(-0.0641049119505618 0.0410113359434723 2.14784840640144e-17)
(-0.0760014630829192 0.0434111402251593 -1.9229241938265e-17)
(-0.0911438297803307 0.0446911536526607 -1.48874938071838e-23)
(-0.0998633283455242 0.0393826277072021 3.03750016501454e-17)
(-0.104533880225005 0.0247786209392077 4.08575406073667e-16)
(-0.120987019141852 0.00761005513503381 1.34486999152448e-17)
(-0.152527108817531 0.00637828113753788 1.10661869752755e-17)
(-0.166512978593676 0.00378941499170183 2.72273732092408e-16)
(-0.173992944447371 0.00249526198431471 2.28794334364068e-16)
(-0.177579053116303 0.00146696380944506 2.0264069967083e-16)
(-0.178204749217883 0.000817326348477357 0)
(-0.176603037476677 0.000224272016004253 0)
(-0.172918129258673 -0.000273249844074401 -2.35286937499666e-21)
(-0.167457182519205 -0.000747189030585988 2.24271240433262e-21)
(-0.160255372072328 -0.0011780628970682 -1.11908982208812e-16)
(-0.151464915224135 -0.00158032518945376 -1.99704944495413e-16)
(-0.141207367208083 -0.00193907535036521 -8.82852570832764e-17)
(-0.129651377764325 -0.00226027093795202 1.34720594877218e-21)
(-0.116966326595568 -0.00253414089678143 6.46707696227594e-17)
(-0.10334091318134 -0.00276222528277264 5.34817382226607e-17)
(-0.0889457395053505 -0.00294646682875865 8.00322012866356e-22)
(-0.073950173556422 -0.00308776727279016 0)
(-0.0585169223444248 -0.00318774408961053 -2.43135479215306e-17)
(-0.0428023225124492 -0.00324835873798286 -3.10734767935146e-17)
(-0.0269507264325938 -0.00327382232107224 -7.26477390378735e-18)
(-0.0110837948788732 -0.00327036724464623 6.68796454669769e-23)
(0.0046942737093616 -0.00324127199458496 -6.75554897194567e-23)
(0.0202879349372682 -0.00318580450964215 -2.83995037180596e-22)
(0.0356149238736591 -0.00310837405067065 2.01916053210739e-17)
(0.0506072899597768 -0.00301525675743828 2.52018125033983e-17)
(0.065211232674102 -0.0029102429595042 5.88226218647319e-17)
(0.0793896912130769 -0.00279961420746113 6.68856421055258e-17)
(0.0931172600330615 -0.00268459824823158 0)
(0.106372268289319 -0.0025652005034473 0)
(0.11913512305628 -0.00244329363131893 -7.14739480870488e-22)
(0.13139615911944 -0.00232192447209418 4.46366970427346e-17)
(0.143156589303285 -0.00220248973219913 9.264635612976e-17)
(0.154419156291278 -0.00208470403047474 4.76903396601087e-17)
(0.16518806322994 -0.0019700144919118 -1.61056561467162e-21)
(0.175472648760506 -0.00185932406678544 8.1700521939921e-22)
(0.185285652109876 -0.00175275262844856 8.32664005295995e-22)
(0.194639680344204 -0.00165022030984989 5.10085566441274e-17)
(0.203548557375527 -0.00155255391712117 5.11163451239769e-17)
(0.212029018868513 -0.00145987407781617 8.48463576361867e-22)
(0.220097562366568 -0.00137160042215733 0)
(0.227769987744275 -0.00128799975498715 0)
(0.235062923295917 -0.00120917054817141 0)
(0.241993503660736 -0.00113484096099598 -5.08540034213952e-16)
(0.248577942470591 -0.0010646531297407 4.65627632249509e-16)
(0.254831881179881 -0.00099869195322213 4.91080218962125e-17)
(0.260771265127746 -0.00093687786890094 8.08664234763396e-22)
(0.26641168941589 -0.000878827448777159 0)
(0.271767730658575 -0.000824295383755171 4.70270975641845e-17)
(0.276853323728199 -0.000773238830487956 -1.13594114666974e-19)
(0.281682355940157 -0.000725560609850011 1.0808026158064e-19)
(0.286268210376131 -0.000680926866942511 4.42774794675991e-17)
(0.290623423970853 -0.000639134627816557 0)
(0.294759829455482 -0.000600054929451914 3.44786352567192e-22)
(0.298688932530745 -0.000563621534174117 -6.83492049555783e-22)
(0.302421927643109 -0.000529641977846642 1.02093627968938e-23)
(0.305969352287592 -0.000497881724962959 3.30204430330804e-22)
(0.309341054668994 -0.000468208591527115 0)
(0.312546393490766 -0.000440540177860323 3.59877235951291e-17)
(0.31559446950897 -0.000414803439085672 3.50646299431214e-17)
(0.318494020639464 -0.000390825638756135 0)
(0.32125321544837 -0.000368449762221662 0)
(0.323879719639031 -0.000347585769212134 -2.69398098021036e-22)
(0.326380805577295 -0.000328155590266127 2.70525948201489e-22)
(0.328763478380402 -0.000310109072334629 -2.5269294038544e-22)
(0.33103450305399 -0.000293349033832845 4.98082450785293e-22)
(0.333200230500294 -0.000277739157403322 -2.45316551361793e-22)
(0.33526658782387 -0.000263206259634081 -2.28072081979754e-22)
(0.337239175774968 -0.000249691802288792 2.28834133594843e-22)
(0.339123333281743 -0.000237151411673009 -2.52719961213638e-17)
(0.340924224235823 -0.000225550342617705 -2.43751859276383e-17)
(0.34264679835746 -0.000214808098891298 -8.42515530314538e-24)
(0.344295697462252 -0.000204843323275298 -1.96807185732324e-22)