/*--------------------------------*- C++ -*----------------------------------*\
| =========                 |                                                 |
| \\      /  F ield         | OpenFOAM: The Open Source CFD Toolbox           |
|  \\    /   O peration     | Version:  2112                                  |
|   \\  /    A nd           | Website:  www.openfoam.com                      |
|    \\/     M anipulation  |                                                 |
\*---------------------------------------------------------------------------*/
FoamFile
{
    version     2.0;
    format      ascii;
    arch        "LSB;label=32;scalar=64";
    class       volVectorField;
    location    "0";
    object      wallShearStress;
}
// * * * * * * * * * * * * * * * * * * * * * * * * * * * * * * * * * * * * * //

dimensions      [0 2 -2 0 0 0 0];

internalField   uniform (0 0 0);

boundaryField
{
    bottomWall
    {
        type            calculated;
        value           nonuniform List<vector> 
180
(
(-0.0020592807834846 -1.36072423737388e-07 0)
(-0.00202949331523915 -3.50377596182497e-06 3.80567065772701e-24)
(-0.00196393261019296 -3.42799605157285e-06 -3.85046967974803e-24)
(-0.00190448846683005 -2.04592846821023e-06 0)
(-0.00186540504848216 -9.95059257829017e-07 8.01196528726719e-24)
(-0.00184075192157191 -4.81315546420112e-07 -8.05259864934679e-24)
(-0.00182433140707158 -2.07425297305535e-07 0)
(-0.00181359828223229 -1.20940621946251e-08 0)
(-0.00180724571086612 1.29482828069038e-07 0)
(-0.00180414405971461 2.25462148135013e-07 0)
(-0.00180344020864894 2.90541744120347e-07 0)
(-0.00180452505956131 3.35582459845146e-07 1.65003020657479e-23)
(-0.0018070194656762 3.67272395753667e-07 -1.64812807926769e-23)
(-0.00181059171211471 3.89168733198757e-07 -6.7893772216992e-17)
(-0.00181499777920459 4.04607685568318e-07 6.77968929534442e-17)
(-0.00182006813013926 4.14587435134514e-07 1.66327261325152e-23)
(-0.00182566805620145 4.19650928024305e-07 9.66453888797341e-26)
(-0.00183168983905815 4.21645773060265e-07 -3.31634957399445e-23)
(-0.00183806054312614 4.22452382896434e-07 -0)
(-0.00184473426172615 4.22465218063489e-07 3.33703148816314e-23)
(-0.00185167104293262 4.21199330226015e-07 1.16605136666869e-25)
(-0.00185883644776186 4.19236085660517e-07 1.22538889695537e-25)
(-0.00186620856777699 4.17287449247445e-07 1.28833174042434e-25)
(-0.00187377774357738 4.15396561581458e-07 -3.35064922834069e-23)
(-0.00188153661216001 4.13886102984962e-07 -0)
(-0.00188948813280395 4.13169099838416e-07 0)
(-0.00189764190355255 4.13423082969327e-07 -3.39118417771517e-23)
(-0.00190601435762464 4.14942378495441e-07 6.78657033469851e-23)
(-0.00191462651946532 4.17710012289158e-07 -3.39525691987176e-23)
(-0.00192350249229374 4.217858719954e-07 -3.42489890167199e-23)
(-0.00193266977523404 4.27344655803255e-07 6.8560097959172e-23)
(-0.00194216167113168 4.34675176021787e-07 -3.43090864063475e-23)
(-0.00195201725851 4.43851939500642e-07 -0)
(-0.00196227823147299 4.54825203572394e-07 0)
(-0.00197299043262848 4.67922726679311e-07 -6.9981254935399e-23)
(-0.00198420779150284 4.83615780758278e-07 6.98203957458494e-23)
(-0.00199599348893126 5.02269563277698e-07 0)
(-0.00200841955715742 5.24253513454322e-07 0)
(-0.00202156863904058 5.50155546801076e-07 0)
(-0.00203553735293126 5.80732582204491e-07 0)
(-0.00205043905772764 6.16851635125197e-07 0)
(-0.00206640702827232 6.59593495463014e-07 0)
(-0.00208359914854093 7.10423965159873e-07 -7.3657813153508e-23)
(-0.00210220651606746 7.71258586197461e-07 7.33898629445603e-23)
(-0.00212245782179203 8.44645230877056e-07 -0)
(-0.00214464548202731 9.35148009821769e-07 7.56446410884038e-23)
(-0.00216914187704942 1.04687402188632e-06 -7.52875377964742e-23)
(-0.00219640230817917 1.18510697927555e-06 -0)
(-0.0022270113477214 1.36103488284641e-06 7.81274711662773e-23)
(-0.00226178427873767 1.58911158738536e-06 -1.5670758512603e-22)
(-0.0023017376607375 1.88844416715261e-06 7.84983041479531e-23)
(-0.00234849777017475 2.29995969319219e-06 -0)
(-0.00240391634891204 2.87285666554266e-06 8.25611567694605e-23)
(-0.00247223791427227 3.75211481144973e-06 -8.15071628574463e-23)
(-0.00255689760645713 5.08993580684639e-06 -8.5455511984186e-23)
(-0.00267361845322539 7.63789270464784e-06 8.35962620499385e-23)
(-0.00282864528413905 1.22254058393567e-05 8.87657430558567e-23)
(-0.0031121470467086 1.93745529014395e-05 -8.58075062084825e-23)
(-0.00309984893200551 6.24597728157035e-05 5.64237288394698e-37)
(-0.00264347142079031 0.000125703434978349 2.16029901466154e-19)
(-0.00194902870303626 0.000164723906208733 1.116088000545e-22)
(-0.00121675852818065 0.000159554368038969 -2.03479712275862e-22)
(-0.000532477748994984 0.000115655201457724 1.3738129444878e-22)
(2.67732117452035e-05 4.92677563085533e-05 1.88079096131566e-37)
(0.000393243913185683 -2.27205835554137e-05 -2.43426314569892e-19)
(0.000574363093148952 -8.34481666350925e-05 -1.11638790141878e-22)
(0.000616311761395128 -0.000120320922640288 4.07741453812927e-19)
(0.000592336604671819 -0.000140190133495868 3.86386926166064e-19)
(0.000530141345092847 -0.000146425486863207 -3.73271523856704e-19)
(0.000456875094600444 -0.000144680635894929 -8.83252435653186e-23)
(0.000388137865020994 -0.000139045755032129 4.60429033286613e-23)
(0.000327664138838006 -0.000130760610177422 4.47252960525488e-23)
(0.000272532905899109 -0.000119841008913978 9.15122352115151e-36)
(0.000218690446136845 -0.000106576288005011 0)
(0.000175927454558394 -9.78356835031215e-05 -4.47283762907735e-23)
(0.000167756220433208 -0.000104768340809411 1.34629394250372e-22)
(0.000177034671316598 -0.000119536469328765 -8.9391236634957e-23)
(0.000174905312273231 -0.000114450405755685 -1.77904350843575e-22)
(0.000200574533557893 -0.000118958609926321 3.47240360701407e-22)
(0.000282768795749359 -0.000134782717051659 -3.43153499128703e-19)
(0.00032588093519314 -0.000124604850930766 3.33233016802307e-19)
(0.000236189903014423 -6.62525578488858e-05 6.5241355124752e-19)
(0.000194213132436997 -1.55875302089926e-05 1.05557487220101e-20)
(0.000455835479489997 -1.59958498409262e-05 2.8401923244703e-25)
(0.000638243783165706 -1.29802697413201e-05 -1.37952215282199e-22)
(0.000770333052914943 -1.14564941637431e-05 0)
(0.000871921918886048 -9.64777009822668e-06 1.16854999088179e-22)
(0.000943969756716015 -8.85249381791814e-06 -1.13130530119553e-22)
(0.000997849404726737 -7.98965711363785e-06 -6.10819242975441e-18)
(0.00103226528147696 -7.25021614805305e-06 -5.66173931590131e-18)
(0.001049927840365 -6.28184330965542e-06 9.03474590673695e-23)
(0.00104947071939636 -5.2624158691881e-06 0)
(0.00103247800998626 -4.2527245389636e-06 6.48550004106925e-40)
(0.00100059476399837 -3.31067555670583e-06 5.96543042891778e-23)
(0.000955266108192754 -2.37479870176216e-06 -3.328594289135e-18)
(0.00089792760605706 -1.50897426337731e-06 -2.8947905734221e-18)
(0.000830465842551672 -7.25988973199027e-07 -0)
(0.000754617519152173 -3.30591894116954e-08 -0)
(0.000672119840303627 5.61806652735593e-07 3.2018175306013e-18)
(0.000584668485799771 1.05358039307372e-06 3.55716626172802e-18)
(0.000493911947868665 1.438344004245e-06 7.75370668391607e-19)
(0.000401390252372273 1.72090718393419e-06 -2.72163931386744e-24)
(0.000308404316410431 1.91722264041196e-06 2.81512550556193e-24)
(0.000216044106441222 2.04785482141792e-06 9.89465456556871e-24)
(0.000125252561299577 2.20383971424842e-06 -1.02676605844115e-23)
(3.68080408105726e-05 2.38596848045483e-06 -0)
(-4.87272946827559e-05 2.40849921993119e-06 0)
(-0.000130894015692064 2.29121778284421e-06 -1.63969470966005e-18)
(-0.000209371665357723 2.165467398351e-06 -1.80919577322491e-18)
(-0.000283987329355501 2.02873856221675e-06 3.37075070091583e-23)
(-0.000354604636012832 1.87888215487531e-06 -3.2975310788826e-23)
(-0.000421115072807791 1.72361065388779e-06 -0)
(-0.000483534528524784 1.57323499899749e-06 -0)
(-0.000541979747199038 1.42947065396773e-06 0)
(-0.000596547589027104 1.28866063463172e-06 0)
(-0.000647362790615971 1.15723291427408e-06 -3.7437898385914e-23)
(-0.000694604757086119 1.0367383814365e-06 3.69749053580619e-23)
(-0.00073846542251908 9.25351332842635e-07 -2.17188479387085e-17)
(-0.000779114717163453 8.2195634607652e-07 2.14968675379686e-17)
(-0.000816743353525903 7.29990713595672e-07 0)
(-0.000851564389584636 6.48243149427944e-07 -1.83668681196995e-54)
(-0.000883759113846866 5.7308381185267e-07 0)
(-0.000913500291166527 5.06305257708566e-07 0)
(-0.000940970497992886 4.47980688183697e-07 -3.33371687643307e-23)
(-0.000966344778151068 3.96203561634277e-07 3.31430598319792e-23)
(-0.000989773358453066 3.49487477713038e-07 0)
(-0.00101140193152399 3.08867071495936e-07 0)
(-0.00103137882310522 2.73915126682198e-07 -0)
(-0.00104983690227822 2.4277727164259e-07 2.93518176063894e-23)
(-0.00106689119066937 2.14957206009524e-07 -2.92429790778578e-23)
(-0.0010826521854873 1.90983198885622e-07 -1.38578448369038e-23)
(-0.0010972310301685 1.70652621378142e-07 1.38146171149035e-23)
(-0.00111072583628563 1.52582316977696e-07 0)
(-0.00112322202073338 1.36493511549732e-07 -0)
(-0.00113479868621225 1.22511097956585e-07 1.22558038389089e-23)
(-0.00114553431659376 1.10820815482713e-07 -1.22283495717336e-23)
(-0.00115550226410474 1.00784882483532e-07 -0)
(-0.00116476513404714 9.17562994445357e-08 -1.11097191028935e-23)
(-0.00117337864048455 8.37987837749568e-08 1.10899794389513e-23)
(-0.00118139612347863 7.71126498843318e-08 0)
(-0.00118887049217775 7.17254941690766e-08 0)
(-0.00119584936194009 6.70965046393952e-08 -1.17081510711636e-18)
(-0.00120237302208858 6.29440749157194e-08 -1.13195958525852e-18)
(-0.00120847820017978 5.93891492600213e-08 1.08991910986584e-18)
(-0.00121419985128023 5.65115805675994e-08 1.05247045738592e-18)
(-0.00121957235641138 5.4408924541944e-08 8.35448965547208e-24)
(-0.00122462805294091 5.28491295045375e-08 -1.63872291291055e-23)
(-0.00122939395190662 5.14841911984436e-08 8.0335119178065e-24)
(-0.00123389381383595 5.03894325522086e-08 0)
(-0.00123815026776337 4.96539739874809e-08 7.14198070147993e-24)
(-0.00124218526486056 4.93558565780499e-08 -8.32280662654405e-19)
(-0.00124602064884009 4.95371047863839e-08 -7.99550789296207e-19)
(-0.00124967621433743 4.99728659343009e-08 -6.56806619082964e-24)
(-0.00125316852903507 5.05135364185339e-08 -0)
(-0.00125651231387676 5.12158448653017e-08 0)
(-0.0012597219858119 5.21714653343828e-08 -2.75132676434347e-24)
(-0.00126281161242935 5.34175382809536e-08 5.37314707097677e-24)
(-0.00126579524317566 5.50195333407407e-08 -2.62194778967302e-24)
(-0.00126868655179162 5.69043452922531e-08 -0)
(-0.00127149708029775 5.88897845534614e-08 -0)
(-0.00127423671957514 6.0987507952171e-08 5.11063713719652e-17)
(-0.00127691506527928 6.3279764887412e-08 -5.10724142599469e-17)
(-0.00127954185199082 6.58255933396198e-08 -0)
(-0.00128212703942338 6.86822333884083e-08 0)
(-0.00128468069721797 7.18977662403831e-08 0)
(-0.00128721354982353 7.54697548851097e-08 0)
(-0.00128973405291569 7.92751784521362e-08 0)
(-0.00129225366541598 8.35350435019706e-08 0)
(-0.00129477696846812 8.80629757937173e-08 -6.15795225159157e-25)
(-0.00129732785861886 9.38184636293539e-08 1.17672926022093e-24)
(-0.00129989096276413 9.92680532242201e-08 -1.0681102164554e-24)
(-0.00130255075192362 1.08962211621207e-07 5.38467002756347e-26)
(-0.0013051717770774 1.13833809477823e-07 4.52555448095789e-25)
(-0.00130815139512159 1.37338581042425e-07 0)
(-0.00131067725942357 1.28653486509123e-07 0)
(-0.00131480091805778 2.1362103152544e-07 0)
(-0.00131606389806246 1.10105410239099e-07 0)
(-0.00132498183535196 4.96342773062121e-07 0)
(-0.00131913929308977 -3.54236444404835e-07 0)
(-0.00133969575511553 2.13985260034515e-06 0)
)
;
    }
    topWall
    {
        type            calculated;
        value           nonuniform List<vector> 
180
(
(-0.00536169444888055 0.000158801681763324 0)
(-0.0037815159267165 0.000124924215919836 0)
(-0.00277516520512922 5.44132372298713e-05 0)
(-0.00223015997364052 1.39667159473005e-05 0)
(-0.00199338976482937 -1.40866691474511e-07 0)
(-0.00189543973390176 -1.66869369288505e-06 0)
(-0.00184141083013694 -5.45724462413881e-07 0)
(-0.00180385179872897 -1.48224995250322e-07 0)
(-0.00177822421959118 -3.56269609582932e-07 0)
(-0.00176305192888278 -6.69072786605874e-07 0)
(-0.00175588640591582 -8.88548230048059e-07 0)
(-0.00175404476256944 -9.71271418737543e-07 0)
(-0.00175507251900962 -9.33070693465691e-07 0)
(-0.00175728517569003 -8.09365887443699e-07 0)
(-0.0017592354215859 -6.42971988469785e-07 0)
(-0.00176022682846928 -4.82120616185157e-07 0)
(-0.00176012320273325 -3.50129166479445e-07 0)
(-0.00175914841019501 -2.56216748978292e-07 0)
(-0.00175765532159129 -1.96666040069582e-07 0)
(-0.00175595637999122 -1.63706493443518e-07 0)
(-0.00175427484068212 -1.47662845418797e-07 0)
(-0.00175273216032021 -1.3925624224853e-07 0)
(-0.0017513697451441 -1.33780205478591e-07 0)
(-0.00175019351780456 -1.29882704695237e-07 0)
(-0.0017491915621564 -1.2558635782021e-07 0)
(-0.00174832651798252 -1.18659642300126e-07 0)
(-0.00174754516624894 -1.091902792658e-07 0)
(-0.00174680352050611 -9.87286803793145e-08 0)
(-0.00174607246279086 -8.75710780211273e-08 0)
(-0.0017453213360375 -7.4891945085372e-08 0)
(-0.00174451808648912 -6.12144306099279e-08 0)
(-0.00174364125515073 -4.77851402630085e-08 0)
(-0.00174268394555177 -3.51390520695878e-08 0)
(-0.0017416410382436 -2.26086477053334e-08 0)
(-0.00174050361173579 -9.97643975696301e-09 0)
(-0.00173926345907525 2.31277676314548e-09 0)
(-0.00173792019726912 1.36442990674113e-08 0)
(-0.00173647820530374 2.42548576361818e-08 0)
(-0.00173493753502872 3.48234770888626e-08 0)
(-0.00173329357232687 4.53460040342191e-08 0)
(-0.00173154505759464 5.522821579917e-08 0)
(-0.00172969672582563 6.43694098010085e-08 0)
(-0.00172775092716452 7.34082360844318e-08 0)
(-0.00172570509741375 8.25131420019157e-08 0)
(-0.00172355711261574 9.13321075619299e-08 0)
(-0.00172130896264458 9.96512509865078e-08 0)
(-0.00171896299413401 1.07752165968413e-07 0)
(-0.00171651871314715 1.15829592187075e-07 0)
(-0.00171397531425702 1.23680692983382e-07 0)
(-0.00171133491978304 1.31119353411766e-07 0)
(-0.00170860005312945 1.38396174153068e-07 0)
(-0.00170577002710996 1.45768739710588e-07 0)
(-0.00170284327289419 1.53052047687957e-07 0)
(-0.00169982081037228 1.60022080795191e-07 0)
(-0.00169670486377484 1.66786857205856e-07 0)
(-0.00169349608483698 1.73486050652484e-07 0)
(-0.00169019514154734 1.79958431581002e-07 0)
(-0.00168680479102654 1.86084888281555e-07 0)
(-0.00168332790304561 1.92010095272376e-07 0)
(-0.001679766199666 1.97774238038642e-07 0)
(-0.00167612199726597 2.03236083450259e-07 0)
(-0.00167239902056431 2.08363883564707e-07 0)
(-0.00166860056048245 2.13270799360947e-07 0)
(-0.0016647294805083 2.17915619454035e-07 0)
(-0.00166078956908847 2.22213408927633e-07 0)
(-0.00165678499089771 2.26213795392392e-07 0)
(-0.00165271943381547 2.29952350414316e-07 0)
(-0.00164859675137213 2.33373668772768e-07 0)
(-0.00164442137384735 2.3646974461291e-07 0)
(-0.00164019745396346 2.39322072917597e-07 0)
(-0.00163592841238202 2.4200729636165e-07 0)
(-0.00163161624846643 2.44373891662349e-07 0)
(-0.00162726998092257 2.45830908788378e-07 0)
(-0.00162289414161381 2.4754711004864e-07 0)
(-0.00161847710837575 2.50581447978486e-07 0)
(-0.00161401178536425 2.53598238134078e-07 0)
(-0.00160949973816181 2.56473438180077e-07 0)
(-0.00160494049222753 2.59528598606806e-07 0)
(-0.00160033522924635 2.62153914240665e-07 0)
(-0.00159569004906729 2.64048232987139e-07 0)
(-0.00159101449017397 2.65111382642194e-07 0)
(-0.0015863205868442 2.65346803275963e-07 0)
(-0.00158161782986559 2.64862022221131e-07 0)
(-0.00157692118273086 2.62973470474698e-07 0)
(-0.0015722492965529 2.60205036813461e-07 0)
(-0.00156760909096653 2.57769335143831e-07 0)
(-0.001563000872601 2.55469306416107e-07 0)
(-0.0015584250390584 2.53139058148156e-07 0)
(-0.00155388348509648 2.50679686107534e-07 0)
(-0.00154937912819073 2.48010595949853e-07 0)
(-0.001544916114164 2.45098365719155e-07 0)
(-0.00154049757137892 2.41918908185525e-07 0)
(-0.00153613097757246 2.37965339819559e-07 0)
(-0.00153182953872053 2.33647171627133e-07 0)
(-0.00152758818777043 2.30294546741315e-07 0)
(-0.0015233939567368 2.27914380504608e-07 0)
(-0.00151924062673906 2.2564128133037e-07 0)
(-0.00151513130564745 2.22826431681261e-07 0)
(-0.00151107442558443 2.1929527365367e-07 0)
(-0.00150707914969476 2.15180592453227e-07 0)
(-0.0015031531323467 2.10501671127774e-07 0)
(-0.00149930681441619 2.0502180263335e-07 0)
(-0.00149555012964844 1.99244067588197e-07 0)
(-0.00149188554764851 1.93779686563583e-07 0)
(-0.00148831179369766 1.88530636930461e-07 0)
(-0.00148482740471756 1.83434942645346e-07 0)
(-0.00148143105613715 1.78470952976277e-07 0)
(-0.00147812193081878 1.73591757234701e-07 0)
(-0.00147489895477875 1.68784620245754e-07 0)
(-0.00147176239448851 1.63773520263174e-07 0)
(-0.00146871671618743 1.58364758079381e-07 0)
(-0.00146576540098739 1.53007301639213e-07 0)
(-0.00146290730988689 1.47966673922318e-07 0)
(-0.00146013991190182 1.43109700104278e-07 0)
(-0.00145746121206431 1.38395944383277e-07 0)
(-0.00145486908531492 1.33849037447199e-07 0)
(-0.0014523616800728 1.29457082913781e-07 0)
(-0.00144993600250229 1.25241208160731e-07 0)
(-0.00144759130256029 1.20822123658744e-07 0)
(-0.0014453308186857 1.161552446608e-07 0)
(-0.00144315497919737 1.11744729879785e-07 0)
(-0.0014410609534195 1.07614360868645e-07 0)
(-0.00143904576943459 1.03646314261832e-07 0)
(-0.00143710702815975 9.98320436725771e-08 0)
(-0.00143524206013469 9.61944897207398e-08 0)
(-0.00143344845105759 9.27262414223596e-08 0)
(-0.00143172254637844 8.94448143165711e-08 0)
(-0.00143006337357086 8.59706424111806e-08 0)
(-0.00142847296017525 8.24014540506271e-08 0)
(-0.00142694939754371 7.9214034963362e-08 0)
(-0.00142548881054342 7.62534337220226e-08 0)
(-0.00142408827110139 7.34112003327781e-08 0)
(-0.00142274535394594 7.07135981441021e-08 0)
(-0.00142145740201125 6.81884891192446e-08 0)
(-0.00142022130312553 6.58522387424216e-08 0)
(-0.00141903391550113 6.35983097521478e-08 0)
(-0.00141789464891769 6.12235542999203e-08 0)
(-0.00141680355096047 5.8929409719764e-08 0)
(-0.00141575781240185 5.69473135666861e-08 0)
(-0.0014147537734634 5.51488757661071e-08 0)
(-0.00141378866493321 5.34626200544508e-08 0)
(-0.00141286001036516 5.19063654370379e-08 0)
(-0.0014119654072043 5.04892434334584e-08 0)
(-0.00141110177996963 4.92413258232399e-08 0)
(-0.00141026670954049 4.79985798960554e-08 0)
(-0.00140946002436434 4.66835557284545e-08 0)
(-0.0014086805956849 4.55576067932568e-08 0)
(-0.0014079252020263 4.46824166065079e-08 0)
(-0.00140719063886447 4.39388643292826e-08 0)
(-0.0014064745811991 4.32868543776966e-08 0)
(-0.00140577480491209 4.27480795523247e-08 0)
(-0.00140508919634538 4.232746590182e-08 0)
(-0.0014044149022374 4.20572121236609e-08 0)
(-0.00140374997127632 4.17573207226185e-08 0)
(-0.00140309448607622 4.14017951512155e-08 0)
(-0.00140244701360413 4.12613216165453e-08 0)
(-0.00140180444672101 4.13289585598918e-08 0)
(-0.00140116399947437 4.15014326856568e-08 0)
(-0.00140052364721262 4.17549285775087e-08 0)
(-0.00139988142267342 4.2104185698298e-08 0)
(-0.00139923550569376 4.25473179300649e-08 0)
(-0.0013985835324136 4.31111844736526e-08 0)
(-0.00139792384725531 4.36540020096362e-08 0)
(-0.00139725643082379 4.41555731184567e-08 0)
(-0.0013965800122796 4.48444888793978e-08 0)
(-0.00139589175146857 4.57249107422941e-08 0)
(-0.00139518924045871 4.66994310779282e-08 0)
(-0.00139447028089449 4.77584034905958e-08 0)
(-0.00139373395702516 4.8876295003449e-08 0)
(-0.00139297649593291 5.01470924090494e-08 0)
(-0.0013922010553982 5.1352376467594e-08 0)
(-0.00139139332175466 5.29993331660086e-08 0)
(-0.00139058352397906 5.3568180151961e-08 0)
(-0.00138969684447614 5.68011923078288e-08 0)
(-0.00138890800226625 5.37330289150652e-08 0)
(-0.00138780423561303 6.62948741082572e-08 0)
(-0.00138732238869537 4.02534885382532e-08 0)
(-0.00138542468734847 1.06233904734294e-07 0)
(-0.00138633401940183 -6.25546589327264e-08 0)
(-0.00138294796125029 2.99543206235043e-07 0)
)
;
    }
    inlet
    {
        type            calculated;
        value           uniform (0 0 0);
    }
    outlet
    {
        type            calculated;
        value           uniform (0 0 0);
    }
    frontAndBack
    {
        type            empty;
    }
}


// ************************************************************************* //
