/*--------------------------------*- C++ -*----------------------------------*\
| =========                 |                                                 |
| \\      /  F ield         | OpenFOAM: The Open Source CFD Toolbox           |
|  \\    /   O peration     | Version:  2406                                  |
|   \\  /    A nd           | Website:  www.openfoam.com                      |
|    \\/     M anipulation  |                                                 |
\*---------------------------------------------------------------------------*/
FoamFile
{
    version     2.0;
    format      ascii;
    arch        "LSB;label=32;scalar=64";
    class       volScalarField;
    location    "28102";
    object      k;
}
// * * * * * * * * * * * * * * * * * * * * * * * * * * * * * * * * * * * * * //

dimensions      [0 2 -2 0 0 0 0];

internalField   nonuniform List<scalar> 
400
(
0.000365303
9.08618e-05
0.000257299
0.000865291
0.00219772
0.00460679
0.00849364
0.0143029
0.0225187
0.0336586
0.048264
0.0668867
0.0900681
0.118313
0.152059
0.191635
0.237234
0.28887
0.346369
0.409356
0.477273
0.549407
0.624937
0.702987
0.782671
0.863143
0.943628
1.02345
1.10202
1.17889
1.25369
1.32615
1.39608
1.46336
1.52799
1.59001
1.64948
1.70642
1.76084
1.8128
1.86235
1.90957
1.95453
1.99731
2.038
2.07668
2.11344
2.14836
2.18154
2.21305
2.24298
2.2714
2.29839
2.32403
2.34837
2.37149
2.39345
2.41431
2.43412
2.45294
2.47082
2.48781
2.50395
2.51928
2.53385
2.54769
2.56084
2.57333
2.58519
2.59647
2.60717
2.61734
2.62699
2.63616
2.64486
2.65312
2.66096
2.66839
2.67544
2.68213
2.68846
2.69445
2.70011
2.70545
2.71048
2.71522
2.71966
2.72382
2.72772
2.73135
2.73472
2.73785
2.74073
2.74338
2.74581
2.74801
2.74999
2.75177
2.75334
2.75471
2.75588
2.75686
2.75766
2.75827
2.75871
2.75897
2.75906
2.75898
2.75874
2.75834
2.75777
2.75705
2.75618
2.75516
2.75399
2.75268
2.75122
2.74962
2.74788
2.74601
2.74399
2.74185
2.73957
2.73716
2.73462
2.73196
2.72917
2.72625
2.72321
2.72004
2.71676
2.71335
2.70983
2.70618
2.70242
2.69854
2.69454
2.69043
2.6862
2.68186
2.6774
2.67284
2.66815
2.66336
2.65845
2.65344
2.64831
2.64307
2.63772
2.63226
2.62669
2.62101
2.61522
2.60932
2.60331
2.5972
2.59097
2.58464
2.57819
2.57164
2.56498
2.55821
2.55133
2.54434
2.53725
2.53004
2.52273
2.51531
2.50777
2.50013
2.49238
2.48453
2.47656
2.46847
2.46027
2.45196
2.44352
2.43496
2.42629
2.41748
2.40855
2.3995
2.39032
2.38101
2.37157
2.362
2.3523
2.34247
2.3325
2.32241
2.31219
2.30185
2.29138
2.28079
2.27009
2.25928
2.24836
2.23734
2.22622
2.215
2.20422
2.19394
2.18368
2.17343
2.1632
2.15299
2.1428
2.13263
2.12247
2.11234
2.10222
2.09213
2.08206
2.07201
2.06198
2.05198
2.042
2.03205
2.02212
2.01221
2.00234
1.99248
1.98266
1.97286
1.9631
1.95336
1.94364
1.93396
1.92431
1.91469
1.9051
1.89554
1.88601
1.87651
1.86705
1.85762
1.84822
1.83886
1.82953
1.82024
1.81098
1.80176
1.79257
1.78342
1.7743
1.76523
1.75619
1.74719
1.73822
1.7293
1.72041
1.71157
1.70276
1.694
1.68528
1.67659
1.66795
1.65936
1.6508
1.64229
1.63382
1.62539
1.61701
1.60867
1.60037
1.59213
1.58392
1.57576
1.56765
1.55959
1.55157
1.5436
1.53568
1.5278
1.51997
1.5122
1.50447
1.49679
1.48916
1.48158
1.47405
1.46657
1.45914
1.45176
1.44444
1.43716
1.42994
1.42278
1.41566
1.4086
1.40159
1.39463
1.38773
1.38089
1.3741
1.36736
1.36068
1.35405
1.34748
1.34097
1.33451
1.32811
1.32177
1.31548
1.30926
1.30308
1.29697
1.29092
1.28492
1.27898
1.27311
1.26729
1.26153
1.25583
1.25019
1.24461
1.23909
1.23363
1.22823
1.2229
1.21762
1.21241
1.20725
1.20216
1.19713
1.19217
1.18726
1.18242
1.17764
1.17293
1.16827
1.16368
1.15916
1.1547
1.1503
1.14596
1.14169
1.13748
1.13334
1.12926
1.12525
1.1213
1.11741
1.1136
1.10984
1.10615
1.10253
1.09897
1.09548
1.09205
1.08869
1.08539
1.08216
1.079
1.0759
1.07287
1.0699
1.067
1.06417
1.06141
1.05871
1.05607
1.05351
1.05101
1.04858
1.04621
1.04391
1.04168
1.03952
1.03742
1.03539
1.03343
1.03153
1.0297
1.02794
1.02625
1.02462
1.02306
1.02157
1.02015
1.01879
1.0175
1.01628
1.01513
1.01405
1.01303
1.01208
1.0112
1.01038
1.00964
1.00896
1.00835
1.0078
1.00733
1.00692
1.00658
1.00631
1.00611
1.00597
1.0059
)
;

boundaryField
{
    topWall
    {
        type            symmetry;
    }
    bottomWall
    {
        type            kLowReWallFunction;
        value           uniform 2.08216e-11;
    }
    inlet
    {
        type            cyclic;
    }
    outlet
    {
        type            cyclic;
    }
    frontAndBack
    {
        type            empty;
    }
}


// ************************************************************************* //
