/*--------------------------------*- C++ -*----------------------------------*\
| =========                 |                                                 |
| \\      /  F ield         | OpenFOAM: The Open Source CFD Toolbox           |
|  \\    /   O peration     | Version:  2406                                  |
|   \\  /    A nd           | Website:  www.openfoam.com                      |
|    \\/     M anipulation  |                                                 |
\*---------------------------------------------------------------------------*/
FoamFile
{
    version     2.0;
    format      ascii;
    arch        "LSB;label=32;scalar=64";
    class       volVectorField;
    location    "28102";
    object      U;
}
// * * * * * * * * * * * * * * * * * * * * * * * * * * * * * * * * * * * * * //

dimensions      [0 1 -1 0 0 0 0];

internalField   nonuniform List<vector> 
400
(
(0.112836 -7.98714e-15 0)
(0.339734 -1.04507e-14 0)
(0.569183 -1.23127e-14 0)
(0.801211 -1.13769e-14 0)
(1.03584 -1.11671e-14 0)
(1.2731 -1.12283e-14 0)
(1.513 -1.12537e-14 0)
(1.75555 -1.12451e-14 0)
(2.00072 -1.12351e-14 0)
(2.24847 -1.12313e-14 0)
(2.49871 -1.1233e-14 0)
(2.75128 -1.12279e-14 0)
(3.00597 -1.12256e-14 0)
(3.26245 -1.12272e-14 0)
(3.52032 -1.12254e-14 0)
(3.77907 -1.12282e-14 0)
(4.03807 -1.12354e-14 0)
(4.29661 -1.12468e-14 0)
(4.5539 -1.12684e-14 0)
(4.80913 -1.1306e-14 0)
(5.06148 -1.13284e-14 0)
(5.31015 -1.13214e-14 0)
(5.55443 -1.13132e-14 0)
(5.79371 -1.13085e-14 0)
(6.02749 -1.13167e-14 0)
(6.25537 -1.13416e-14 0)
(6.47711 -1.13805e-14 0)
(6.69253 -1.14095e-14 0)
(6.90158 -1.13711e-14 0)
(7.10429 -1.13198e-14 0)
(7.30073 -1.13149e-14 0)
(7.49105 -1.13287e-14 0)
(7.67541 -1.13539e-14 0)
(7.85403 -1.13652e-14 0)
(8.02727 -1.13623e-14 0)
(8.19559 -1.13728e-14 0)
(8.35924 -1.14117e-14 0)
(8.51839 -1.14528e-14 0)
(8.67318 -1.14691e-14 0)
(8.82376 -1.14761e-14 0)
(8.97028 -1.14865e-14 0)
(9.11288 -1.14992e-14 0)
(9.2517 -1.1514e-14 0)
(9.3869 -1.15308e-14 0)
(9.51861 -1.15491e-14 0)
(9.64697 -1.15665e-14 0)
(9.77212 -1.15803e-14 0)
(9.89418 -1.15837e-14 0)
(10.0133 -1.15106e-14 0)
(10.1295 -1.14025e-14 0)
(10.2431 -1.13676e-14 0)
(10.354 -1.12929e-14 0)
(10.4624 -1.12099e-14 0)
(10.5684 -1.12633e-14 0)
(10.6721 -1.13074e-14 0)
(10.7736 -1.13733e-14 0)
(10.8729 -1.14469e-14 0)
(10.9702 -1.14409e-14 0)
(11.0656 -1.145e-14 0)
(11.1591 -1.14815e-14 0)
(11.2508 -1.14673e-14 0)
(11.3407 -1.14632e-14 0)
(11.429 -1.14845e-14 0)
(11.5156 -1.14839e-14 0)
(11.6007 -1.15473e-14 0)
(11.6844 -1.1623e-14 0)
(11.7665 -1.16643e-14 0)
(11.8474 -1.17006e-14 0)
(11.9268 -1.17349e-14 0)
(12.005 -1.17292e-14 0)
(12.082 -1.16252e-14 0)
(12.1578 -1.15154e-14 0)
(12.2324 -1.14909e-14 0)
(12.3059 -1.14882e-14 0)
(12.3783 -1.14245e-14 0)
(12.4497 -1.12726e-14 0)
(12.5201 -1.11375e-14 0)
(12.5896 -1.11802e-14 0)
(12.6581 -1.12353e-14 0)
(12.7259 -1.11694e-14 0)
(12.7928 -1.10817e-14 0)
(12.8589 -1.10371e-14 0)
(12.9243 -1.10525e-14 0)
(12.9889 -1.10504e-14 0)
(13.0527 -1.09646e-14 0)
(13.1159 -1.08641e-14 0)
(13.1784 -1.08129e-14 0)
(13.2403 -1.08041e-14 0)
(13.3015 -1.09222e-14 0)
(13.3621 -1.10578e-14 0)
(13.4221 -1.10996e-14 0)
(13.4815 -1.11322e-14 0)
(13.5403 -1.11854e-14 0)
(13.5985 -1.12474e-14 0)
(13.6563 -1.13135e-14 0)
(13.7135 -1.13815e-14 0)
(13.7702 -1.14497e-14 0)
(13.8264 -1.15174e-14 0)
(13.8821 -1.15844e-14 0)
(13.9374 -1.16502e-14 0)
(13.9922 -1.17165e-14 0)
(14.0465 -1.17865e-14 0)
(14.1004 -1.18314e-14 0)
(14.1539 -1.17921e-14 0)
(14.207 -1.17472e-14 0)
(14.2596 -1.17757e-14 0)
(14.3119 -1.18157e-14 0)
(14.3638 -1.18331e-14 0)
(14.4153 -1.18231e-14 0)
(14.4665 -1.17905e-14 0)
(14.5173 -1.16484e-14 0)
(14.5677 -1.15345e-14 0)
(14.6178 -1.15649e-14 0)
(14.6676 -1.16038e-14 0)
(14.7171 -1.164e-14 0)
(14.7662 -1.16814e-14 0)
(14.815 -1.17247e-14 0)
(14.8635 -1.16298e-14 0)
(14.9118 -1.14599e-14 0)
(14.9597 -1.15164e-14 0)
(15.0074 -1.16917e-14 0)
(15.0547 -1.17801e-14 0)
(15.1018 -1.1766e-14 0)
(15.1487 -1.16825e-14 0)
(15.1953 -1.15668e-14 0)
(15.2416 -1.14812e-14 0)
(15.2877 -1.1458e-14 0)
(15.3335 -1.13303e-14 0)
(15.3791 -1.10879e-14 0)
(15.4244 -1.0919e-14 0)
(15.4696 -1.09027e-14 0)
(15.5145 -1.09679e-14 0)
(15.5591 -1.08009e-14 0)
(15.6036 -1.04055e-14 0)
(15.6478 -1.01238e-14 0)
(15.6919 -1.00205e-14 0)
(15.7357 -9.96347e-15 0)
(15.7794 -9.8614e-15 0)
(15.8228 -9.72835e-15 0)
(15.8661 -9.62446e-15 0)
(15.9091 -9.68383e-15 0)
(15.952 -9.83942e-15 0)
(15.9947 -9.93988e-15 0)
(16.0372 -1.00381e-14 0)
(16.0795 -1.01155e-14 0)
(16.1217 -1.01306e-14 0)
(16.1637 -1.01301e-14 0)
(16.2055 -1.01257e-14 0)
(16.2471 -1.01231e-14 0)
(16.2886 -1.01235e-14 0)
(16.33 -1.01266e-14 0)
(16.3711 -1.01323e-14 0)
(16.4122 -1.0139e-14 0)
(16.453 -1.01457e-14 0)
(16.4937 -1.01515e-14 0)
(16.5343 -1.0156e-14 0)
(16.5747 -1.01604e-14 0)
(16.615 -1.01633e-14 0)
(16.6551 -1.01652e-14 0)
(16.6951 -1.01669e-14 0)
(16.735 -1.01695e-14 0)
(16.7747 -1.01745e-14 0)
(16.8143 -1.01839e-14 0)
(16.8538 -1.0197e-14 0)
(16.8931 -1.02184e-14 0)
(16.9323 -1.02497e-14 0)
(16.9713 -1.02857e-14 0)
(17.0103 -1.04432e-14 0)
(17.0491 -1.10945e-14 0)
(17.0878 -1.17106e-14 0)
(17.1264 -1.18123e-14 0)
(17.1648 -1.18299e-14 0)
(17.2031 -1.1874e-14 0)
(17.2414 -1.19442e-14 0)
(17.2795 -1.19149e-14 0)
(17.3175 -1.17808e-14 0)
(17.3555 -1.16654e-14 0)
(17.3933 -1.15582e-14 0)
(17.4311 -1.1463e-14 0)
(17.4688 -1.13925e-14 0)
(17.5064 -1.138e-14 0)
(17.5439 -1.1477e-14 0)
(17.5813 -1.147e-14 0)
(17.6186 -1.10189e-14 0)
(17.6559 -1.05777e-14 0)
(17.693 -1.06158e-14 0)
(17.7301 -1.07952e-14 0)
(17.767 -1.08943e-14 0)
(17.8039 -1.09642e-14 0)
(17.8406 -1.10368e-14 0)
(17.8772 -1.11244e-14 0)
(17.9137 -1.12299e-14 0)
(17.95 -1.13504e-14 0)
(17.9863 -1.14802e-14 0)
(18.0223 -1.16232e-14 0)
(18.0582 -1.1641e-14 0)
(18.0939 -1.15186e-14 0)
(18.1295 -1.15337e-14 0)
(18.1649 -1.15092e-14 0)
(18.2001 -1.12253e-14 0)
(18.2335 -1.14961e-14 0)
(18.2649 -1.13774e-14 0)
(18.2959 -1.11796e-14 0)
(18.3265 -1.1146e-14 0)
(18.3567 -1.11054e-14 0)
(18.3866 -1.09115e-14 0)
(18.416 -1.0968e-14 0)
(18.4451 -1.12723e-14 0)
(18.4737 -1.14237e-14 0)
(18.5021 -1.15739e-14 0)
(18.53 -1.18602e-14 0)
(18.5577 -1.20124e-14 0)
(18.585 -1.20424e-14 0)
(18.6119 -1.20793e-14 0)
(18.6385 -1.21147e-14 0)
(18.6648 -1.21489e-14 0)
(18.6908 -1.21817e-14 0)
(18.7165 -1.22134e-14 0)
(18.7418 -1.2244e-14 0)
(18.7669 -1.22736e-14 0)
(18.7916 -1.23116e-14 0)
(18.8161 -1.22273e-14 0)
(18.8403 -1.2022e-14 0)
(18.8642 -1.18265e-14 0)
(18.8878 -1.16313e-14 0)
(18.9112 -1.14365e-14 0)
(18.9342 -1.1242e-14 0)
(18.9571 -1.10478e-14 0)
(18.9796 -1.08539e-14 0)
(19.0019 -1.06602e-14 0)
(19.024 -1.04667e-14 0)
(19.0458 -1.02735e-14 0)
(19.0673 -1.00804e-14 0)
(19.0886 -9.88752e-15 0)
(19.1097 -9.69478e-15 0)
(19.1305 -9.50219e-15 0)
(19.1511 -9.30972e-15 0)
(19.1715 -9.11734e-15 0)
(19.1916 -8.92505e-15 0)
(19.2116 -8.7328e-15 0)
(19.2313 -8.54058e-15 0)
(19.2507 -8.34836e-15 0)
(19.27 -8.1561e-15 0)
(19.2891 -7.96376e-15 0)
(19.3079 -7.77132e-15 0)
(19.3266 -7.57872e-15 0)
(19.345 -7.38593e-15 0)
(19.3632 -7.19291e-15 0)
(19.3813 -6.99959e-15 0)
(19.3991 -6.80594e-15 0)
(19.4168 -6.61189e-15 0)
(19.4342 -6.41741e-15 0)
(19.4515 -6.22244e-15 0)
(19.4685 -6.02692e-15 0)
(19.4854 -5.83082e-15 0)
(19.5021 -5.6341e-15 0)
(19.5186 -5.43672e-15 0)
(19.535 -5.23867e-15 0)
(19.5511 -5.03991e-15 0)
(19.5671 -4.84041e-15 0)
(19.5829 -4.64012e-15 0)
(19.5986 -4.43904e-15 0)
(19.614 -4.23694e-15 0)
(19.6293 -4.03472e-15 0)
(19.6445 -3.83134e-15 0)
(19.6594 -3.62685e-15 0)
(19.6742 -3.42109e-15 0)
(19.6889 -3.21476e-15 0)
(19.7033 -3.00772e-15 0)
(19.7177 -2.79996e-15 0)
(19.7318 -2.59065e-15 0)
(19.7458 -2.37973e-15 0)
(19.7597 -2.16801e-15 0)
(19.7733 -1.95424e-15 0)
(19.7869 -1.74762e-15 0)
(19.8003 -1.42066e-15 0)
(19.8135 -9.73955e-16 0)
(19.8266 -5.34639e-16 0)
(19.8395 -9.33284e-17 0)
(19.8523 3.49141e-16 0)
(19.865 7.92944e-16 0)
(19.8775 1.23825e-15 0)
(19.8898 1.68521e-15 0)
(19.902 2.13397e-15 0)
(19.9141 2.58414e-15 0)
(19.926 3.04597e-15 0)
(19.9378 3.3911e-15 0)
(19.9495 3.61992e-15 0)
(19.961 3.86914e-15 0)
(19.9724 4.00226e-15 0)
(19.9837 4.02115e-15 0)
(19.9948 4.05271e-15 0)
(20.0058 4.08813e-15 0)
(20.0166 4.12802e-15 0)
(20.0274 4.17241e-15 0)
(20.038 4.22133e-15 0)
(20.0484 4.27469e-15 0)
(20.0588 4.3323e-15 0)
(20.069 4.39386e-15 0)
(20.0791 4.45893e-15 0)
(20.089 4.52689e-15 0)
(20.0989 4.59723e-15 0)
(20.1086 4.66864e-15 0)
(20.1182 4.73993e-15 0)
(20.1277 4.80949e-15 0)
(20.137 4.87521e-15 0)
(20.1462 4.93497e-15 0)
(20.1553 4.98631e-15 0)
(20.1643 5.02698e-15 0)
(20.1732 5.05426e-15 0)
(20.182 5.06611e-15 0)
(20.1906 5.06062e-15 0)
(20.1991 5.03683e-15 0)
(20.2075 4.99424e-15 0)
(20.2158 4.93294e-15 0)
(20.224 4.85292e-15 0)
(20.2321 4.75202e-15 0)
(20.24 4.62296e-15 0)
(20.2479 4.43294e-15 0)
(20.2556 4.30331e-15 0)
(20.2632 4.63072e-15 0)
(20.2707 5.05331e-15 0)
(20.2781 5.08603e-15 0)
(20.2854 5.0093e-15 0)
(20.2926 4.95386e-15 0)
(20.2997 4.88824e-15 0)
(20.3066 4.80781e-15 0)
(20.3135 4.71326e-15 0)
(20.3202 4.60743e-15 0)
(20.3269 4.49363e-15 0)
(20.3334 4.37483e-15 0)
(20.3399 4.25376e-15 0)
(20.3462 4.13271e-15 0)
(20.3524 4.01298e-15 0)
(20.3585 3.89601e-15 0)
(20.3646 3.7827e-15 0)
(20.3705 3.67433e-15 0)
(20.3763 3.57179e-15 0)
(20.382 3.47661e-15 0)
(20.3876 3.3905e-15 0)
(20.3932 3.31607e-15 0)
(20.3986 3.25702e-15 0)
(20.4039 3.21857e-15 0)
(20.4091 3.20721e-15 0)
(20.4142 3.21888e-15 0)
(20.4192 3.39337e-15 0)
(20.4242 3.50306e-15 0)
(20.429 3.73328e-15 0)
(20.4337 4.23406e-15 0)
(20.4383 4.83836e-15 0)
(20.4429 5.25185e-15 0)
(20.4473 5.50541e-15 0)
(20.4516 5.77809e-15 0)
(20.4559 5.96144e-15 0)
(20.46 5.93413e-15 0)
(20.4641 5.7505e-15 0)
(20.468 5.60737e-15 0)
(20.4719 5.37476e-15 0)
(20.4757 5.1699e-15 0)
(20.4793 4.98075e-15 0)
(20.4829 4.77686e-15 0)
(20.4864 4.67421e-15 0)
(20.4898 4.40519e-15 0)
(20.4931 4.2285e-15 0)
(20.4963 4.4984e-15 0)
(20.4994 4.38889e-15 0)
(20.5025 4.30869e-15 0)
(20.5054 4.53652e-15 0)
(20.5083 4.57748e-15 0)
(20.511 4.57414e-15 0)
(20.5137 4.49879e-15 0)
(20.5162 4.49213e-15 0)
(20.5187 4.28882e-15 0)
(20.5211 4.078e-15 0)
(20.5234 4.04779e-15 0)
(20.5256 3.92529e-15 0)
(20.5277 3.95812e-15 0)
(20.5298 4.03563e-15 0)
(20.5317 4.19137e-15 0)
(20.5336 4.0852e-15 0)
(20.5353 3.82519e-15 0)
(20.537 3.7065e-15 0)
(20.5386 3.45986e-15 0)
(20.5401 3.19808e-15 0)
(20.5415 2.91716e-15 0)
(20.5428 2.62035e-15 0)
(20.544 2.31e-15 0)
(20.5452 1.98883e-15 0)
(20.5462 1.66024e-15 0)
(20.5472 1.33008e-15 0)
(20.5481 1.00171e-15 0)
(20.5489 7.87593e-16 0)
(20.5496 7.48809e-16 0)
(20.5502 8.23273e-16 0)
(20.5507 8.22939e-16 0)
(20.5512 6.91751e-16 0)
(20.5515 5.50654e-16 0)
(20.5518 4.02456e-16 0)
(20.5519 2.48231e-16 0)
(20.552 8.43507e-17 0)
)
;

boundaryField
{
    topWall
    {
        type            symmetry;
    }
    bottomWall
    {
        type            noSlip;
    }
    inlet
    {
        type            cyclic;
    }
    outlet
    {
        type            cyclic;
    }
    frontAndBack
    {
        type            empty;
    }
}


// ************************************************************************* //
