/*--------------------------------*- C++ -*----------------------------------*\
| =========                 |                                                 |
| \\      /  F ield         | OpenFOAM: The Open Source CFD Toolbox           |
|  \\    /   O peration     | Version:  2406                                  |
|   \\  /    A nd           | Website:  www.openfoam.com                      |
|    \\/     M anipulation  |                                                 |
\*---------------------------------------------------------------------------*/
FoamFile
{
    version     2.0;
    format      ascii;
    arch        "LSB;label=32;scalar=64";
    class       volScalarField;
    location    "46125";
    object      V;
}
// * * * * * * * * * * * * * * * * * * * * * * * * * * * * * * * * * * * * * //

dimensions      [0 3 0 0 0 0 0];

internalField   nonuniform List<scalar> 
400
(
3.8298e-08
3.87437e-08
3.91946e-08
3.96508e-08
4.01122e-08
4.05791e-08
4.10513e-08
4.15291e-08
4.20124e-08
4.25013e-08
4.2996e-08
4.34964e-08
4.40026e-08
4.45147e-08
4.50327e-08
4.55568e-08
4.6087e-08
4.66234e-08
4.7166e-08
4.77149e-08
4.82702e-08
4.8832e-08
4.94003e-08
4.99752e-08
5.05568e-08
5.11452e-08
5.17404e-08
5.23425e-08
5.29517e-08
5.3568e-08
5.41914e-08
5.48221e-08
5.54601e-08
5.61055e-08
5.67585e-08
5.7419e-08
5.80873e-08
5.87633e-08
5.94472e-08
6.0139e-08
6.08389e-08
6.1547e-08
6.22632e-08
6.29879e-08
6.37209e-08
6.44625e-08
6.52127e-08
6.59716e-08
6.67394e-08
6.75161e-08
6.83019e-08
6.90968e-08
6.99009e-08
7.07144e-08
7.15374e-08
7.237e-08
7.32122e-08
7.40642e-08
7.49262e-08
7.57982e-08
7.66803e-08
7.75727e-08
7.84755e-08
7.93888e-08
8.03127e-08
8.12474e-08
8.2193e-08
8.31495e-08
8.41172e-08
8.50962e-08
8.60865e-08
8.70884e-08
8.81019e-08
8.91273e-08
9.01645e-08
9.12139e-08
9.22754e-08
9.33493e-08
9.44357e-08
9.55347e-08
9.66466e-08
9.77714e-08
9.89092e-08
1.0006e-07
1.01225e-07
1.02403e-07
1.03595e-07
1.048e-07
1.0602e-07
1.07254e-07
1.08502e-07
1.09765e-07
1.11042e-07
1.12334e-07
1.13642e-07
1.14964e-07
1.16302e-07
1.17656e-07
1.19025e-07
1.2041e-07
1.21812e-07
1.23229e-07
1.24663e-07
1.26114e-07
1.27582e-07
1.29067e-07
1.30569e-07
1.32088e-07
1.33626e-07
1.35181e-07
1.36754e-07
1.38346e-07
1.39956e-07
1.41584e-07
1.43232e-07
1.44899e-07
1.46586e-07
1.48291e-07
1.50017e-07
1.51763e-07
1.53529e-07
1.55316e-07
1.57124e-07
1.58952e-07
1.60802e-07
1.62674e-07
1.64567e-07
1.66482e-07
1.6842e-07
1.7038e-07
1.72362e-07
1.74368e-07
1.76398e-07
1.78451e-07
1.80527e-07
1.82628e-07
1.84754e-07
1.86904e-07
1.89079e-07
1.9128e-07
1.93506e-07
1.95758e-07
1.98036e-07
2.00341e-07
2.02672e-07
2.05031e-07
2.07417e-07
2.09831e-07
2.12273e-07
2.14744e-07
2.17243e-07
2.19771e-07
2.22329e-07
2.24916e-07
2.27534e-07
2.30182e-07
2.32861e-07
2.35571e-07
2.38312e-07
2.41086e-07
2.43891e-07
2.4673e-07
2.49601e-07
2.52506e-07
2.55445e-07
2.58418e-07
2.61425e-07
2.64468e-07
2.67545e-07
2.70659e-07
2.73809e-07
2.76996e-07
2.80219e-07
2.8348e-07
2.8678e-07
2.90117e-07
2.93494e-07
2.96909e-07
3.00365e-07
3.0386e-07
3.07397e-07
3.10974e-07
3.14593e-07
3.18254e-07
3.21958e-07
3.25705e-07
3.29496e-07
3.3333e-07
3.3721e-07
3.41134e-07
3.45104e-07
3.49121e-07
3.53184e-07
3.57294e-07
3.61452e-07
3.65659e-07
3.69914e-07
3.74219e-07
3.78574e-07
3.8298e-07
3.5e-07
3.5e-07
3.5e-07
3.5e-07
3.5e-07
3.5e-07
3.5e-07
3.5e-07
3.5e-07
3.5e-07
3.5e-07
3.5e-07
3.5e-07
3.5e-07
3.5e-07
3.5e-07
3.5e-07
3.5e-07
3.5e-07
3.5e-07
3.5e-07
3.5e-07
3.5e-07
3.5e-07
3.5e-07
3.5e-07
3.5e-07
3.5e-07
3.5e-07
3.5e-07
3.5e-07
3.5e-07
3.5e-07
3.5e-07
3.5e-07
3.5e-07
3.5e-07
3.5e-07
3.5e-07
3.5e-07
3.5e-07
3.5e-07
3.5e-07
3.5e-07
3.5e-07
3.5e-07
3.5e-07
3.5e-07
3.5e-07
3.5e-07
3.5e-07
3.5e-07
3.5e-07
3.5e-07
3.5e-07
3.5e-07
3.5e-07
3.5e-07
3.5e-07
3.5e-07
3.5e-07
3.5e-07
3.5e-07
3.5e-07
3.5e-07
3.5e-07
3.5e-07
3.5e-07
3.5e-07
3.5e-07
3.5e-07
3.5e-07
3.5e-07
3.5e-07
3.5e-07
3.5e-07
3.5e-07
3.5e-07
3.5e-07
3.5e-07
3.5e-07
3.5e-07
3.5e-07
3.5e-07
3.5e-07
3.5e-07
3.5e-07
3.5e-07
3.5e-07
3.5e-07
3.5e-07
3.5e-07
3.5e-07
3.5e-07
3.5e-07
3.5e-07
3.5e-07
3.5e-07
3.5e-07
3.5e-07
3.5e-07
3.5e-07
3.5e-07
3.5e-07
3.5e-07
3.5e-07
3.5e-07
3.5e-07
3.5e-07
3.5e-07
3.5e-07
3.5e-07
3.5e-07
3.5e-07
3.5e-07
3.5e-07
3.5e-07
3.5e-07
3.5e-07
3.5e-07
3.5e-07
3.5e-07
3.5e-07
3.5e-07
3.5e-07
3.5e-07
3.5e-07
3.5e-07
3.5e-07
3.5e-07
3.5e-07
3.5e-07
3.5e-07
3.5e-07
3.5e-07
3.5e-07
3.5e-07
3.5e-07
3.5e-07
3.5e-07
3.5e-07
3.5e-07
3.5e-07
3.5e-07
3.5e-07
3.5e-07
3.5e-07
3.5e-07
3.5e-07
3.5e-07
3.5e-07
3.5e-07
3.5e-07
3.5e-07
3.5e-07
3.5e-07
3.5e-07
3.5e-07
3.5e-07
3.5e-07
3.5e-07
3.5e-07
3.5e-07
3.5e-07
3.5e-07
3.5e-07
3.5e-07
3.5e-07
3.5e-07
3.5e-07
3.5e-07
3.5e-07
3.5e-07
3.5e-07
3.5e-07
3.5e-07
3.5e-07
3.5e-07
3.5e-07
3.5e-07
3.5e-07
3.5e-07
3.5e-07
3.5e-07
3.5e-07
3.5e-07
3.5e-07
3.5e-07
3.5e-07
3.5e-07
3.5e-07
3.5e-07
3.5e-07
3.5e-07
3.5e-07
3.5e-07
3.5e-07
3.5e-07
3.5e-07
3.5e-07
)
;

boundaryField
{
    topWall
    {
        type            symmetry;
    }
    bottomWall
    {
        type            calculated;
        value           uniform 0;
    }
    inlet
    {
        type            cyclic;
    }
    outlet
    {
        type            cyclic;
    }
    frontAndBack
    {
        type            empty;
    }
}


// ************************************************************************* //
