/*--------------------------------*- C++ -*----------------------------------*\
| =========                 |                                                 |
| \\      /  F ield         | OpenFOAM: The Open Source CFD Toolbox           |
|  \\    /   O peration     | Version:  2406                                  |
|   \\  /    A nd           | Website:  www.openfoam.com                      |
|    \\/     M anipulation  |                                                 |
\*---------------------------------------------------------------------------*/
FoamFile
{
    version     2.0;
    format      ascii;
    arch        "LSB;label=32;scalar=64";
    class       volSymmTensorField;
    location    "0";
    object      turbulenceProperties:R;
}
// * * * * * * * * * * * * * * * * * * * * * * * * * * * * * * * * * * * * * //

dimensions      [0 2 -2 0 0 0 0];

internalField   nonuniform List<symmTensor> 
2304
(
(1.30787e-05 5.76449e-12 -1.35711e-07 1.30787e-05 -8.7914e-23 1.30787e-05)
(1.30421e-05 1.7077e-11 -1.35143e-07 1.30421e-05 -2.02252e-22 1.30421e-05)
(1.29731e-05 2.8039e-11 -1.34077e-07 1.29731e-05 -1.24186e-22 1.29731e-05)
(1.28755e-05 3.86943e-11 -1.32573e-07 1.28755e-05 -6.0789e-23 1.28755e-05)
(1.27522e-05 4.90918e-11 -1.30682e-07 1.27522e-05 -6.86297e-23 1.27522e-05)
(1.26061e-05 5.93439e-11 -1.28451e-07 1.26061e-05 -6.16334e-23 1.26061e-05)
(1.24391e-05 6.94766e-11 -1.2592e-07 1.24391e-05 -5.4803e-23 1.24391e-05)
(1.22535e-05 7.94704e-11 -1.23123e-07 1.22535e-05 -3.91489e-23 1.22535e-05)
(1.20508e-05 8.94004e-11 -1.20092e-07 1.20508e-05 -4.37488e-23 1.20508e-05)
(1.18326e-05 9.93086e-11 -1.16856e-07 1.18326e-05 -3.88204e-23 1.18326e-05)
(1.16001e-05 1.0914e-10 -1.13442e-07 1.16001e-05 -3.48026e-23 1.16001e-05)
(1.13545e-05 1.18954e-10 -1.09871e-07 1.13545e-05 -3.6764e-23 1.13545e-05)
(1.1097e-05 1.28742e-10 -1.06166e-07 1.1097e-05 -3.47613e-23 1.1097e-05)
(1.08284e-05 1.38529e-10 -1.02346e-07 1.08284e-05 -3.61356e-23 1.08284e-05)
(1.05496e-05 1.4831e-10 -9.84286e-08 1.05496e-05 -3.07566e-23 1.05496e-05)
(1.02613e-05 1.58112e-10 -9.4431e-08 1.02613e-05 -2.7736e-23 1.02613e-05)
(9.96407e-06 1.67954e-10 -9.03674e-08 9.96407e-06 -3.22546e-23 9.96407e-06)
(9.65847e-06 1.77834e-10 -8.62504e-08 9.65847e-06 -3.56542e-23 9.65847e-06)
(9.34487e-06 1.87894e-10 -8.20905e-08 9.34487e-06 -3.12407e-23 9.34487e-06)
(9.0232e-06 1.98269e-10 -7.78952e-08 9.0232e-06 -3.13716e-23 9.0232e-06)
(8.69333e-06 2.09081e-10 -7.36682e-08 8.69333e-06 -2.91218e-23 8.69333e-06)
(8.35467e-06 2.20159e-10 -6.941e-08 8.35467e-06 -2.42151e-23 8.35467e-06)
(8.0072e-06 2.31137e-10 -6.513e-08 8.0072e-06 -2.27158e-23 8.0072e-06)
(7.65173e-06 2.41884e-10 -6.08442e-08 7.65173e-06 -2.12296e-23 7.65173e-06)
(7.2884e-06 2.52577e-10 -5.65649e-08 7.2884e-06 -1.87903e-23 7.2884e-06)
(6.91713e-06 2.63176e-10 -5.23003e-08 6.91713e-06 -1.63345e-23 6.91713e-06)
(6.53791e-06 2.73288e-10 -4.80599e-08 6.53791e-06 -1.50828e-23 6.53791e-06)
(6.15121e-06 2.8253e-10 -4.38602e-08 6.15121e-06 -1.46352e-23 6.15121e-06)
(5.75803e-06 2.90556e-10 -3.97226e-08 5.75803e-06 -1.3102e-23 5.75803e-06)
(5.35937e-06 2.9709e-10 -3.56687e-08 5.35937e-06 -1.08976e-23 5.35937e-06)
(4.95626e-06 3.01931e-10 -3.17196e-08 4.95626e-06 -9.51826e-24 4.95626e-06)
(4.54988e-06 3.04663e-10 -2.78977e-08 4.54988e-06 -8.45733e-24 4.54988e-06)
(4.1417e-06 3.04832e-10 -2.42268e-08 4.1417e-06 -7.05673e-24 4.1417e-06)
(3.73361e-06 3.01886e-10 -2.07336e-08 3.73361e-06 -5.91325e-24 3.73361e-06)
(3.32803e-06 2.95226e-10 -1.74462e-08 3.32803e-06 -4.80198e-24 3.32803e-06)
(2.92793e-06 2.84374e-10 -1.43944e-08 2.92793e-06 -3.70904e-24 2.92793e-06)
(2.537e-06 2.68898e-10 -1.16081e-08 2.537e-06 -2.95061e-24 2.537e-06)
(2.15959e-06 2.4862e-10 -9.11505e-09 2.15959e-06 -2.19482e-24 2.15959e-06)
(1.80064e-06 2.2382e-10 -6.93817e-09 1.80064e-06 -1.55577e-24 1.80064e-06)
(1.46533e-06 1.95313e-10 -5.09193e-09 1.46533e-06 -1.09297e-24 1.46533e-06)
(1.15861e-06 1.64431e-10 -3.57842e-09 1.15861e-06 -7.50329e-25 1.15861e-06)
(8.846e-07 1.32857e-10 -2.38544e-09 8.846e-07 -4.72863e-25 8.846e-07)
(6.46126e-07 1.02294e-10 -1.48695e-09 6.46126e-07 -2.65992e-25 6.46126e-07)
(4.44559e-07 7.4161e-11 -8.46343e-10 4.44559e-07 -1.36536e-25 4.44559e-07)
(2.8016e-07 4.94639e-11 -4.2124e-10 2.8016e-07 -5.89397e-26 2.8016e-07)
(1.52735e-07 2.88877e-11 -1.67749e-10 1.52735e-07 -1.79912e-26 1.52735e-07)
(6.26547e-08 1.30561e-11 -4.27742e-11 6.26547e-08 -2.21474e-27 6.26547e-08)
(1.31253e-08 3.22929e-12 -3.22929e-12 1.31253e-08 -7.07697e-29 1.31253e-08)
(1.15523e-05 9.17729e-11 -7.00331e-07 1.15523e-05 -9.15897e-23 1.15523e-05)
(1.15095e-05 2.71617e-10 -6.96772e-07 1.15095e-05 -3.53465e-22 1.15095e-05)
(1.1429e-05 4.44781e-10 -6.90111e-07 1.1429e-05 -2.03403e-22 1.1429e-05)
(1.13155e-05 6.12414e-10 -6.80747e-07 1.13155e-05 -4.79904e-23 1.13155e-05)
(1.1173e-05 7.75171e-10 -6.69022e-07 1.1173e-05 -1.04347e-22 1.1173e-05)
(1.1005e-05 9.33543e-10 -6.55257e-07 1.1005e-05 -9.48336e-23 1.1005e-05)
(1.08146e-05 1.0881e-09 -6.39733e-07 1.08146e-05 -8.28161e-23 1.08146e-05)
(1.06046e-05 1.23933e-09 -6.22707e-07 1.06046e-05 -4.11666e-23 1.06046e-05)
(1.03775e-05 1.38763e-09 -6.04404e-07 1.03775e-05 -6.76575e-23 1.03775e-05)
(1.01353e-05 1.53293e-09 -5.85033e-07 1.01353e-05 -5.7241e-23 1.01353e-05)
(9.88027e-06 1.67562e-09 -5.6478e-07 9.88027e-06 -4.89264e-23 9.88027e-06)
(9.61413e-06 1.81586e-09 -5.43816e-07 9.61413e-06 -6.21127e-23 9.61413e-06)
(9.33847e-06 1.95356e-09 -5.22296e-07 9.33847e-06 -6.22911e-23 9.33847e-06)
(9.05487e-06 2.08903e-09 -5.00353e-07 9.05487e-06 -7.57924e-23 9.05487e-06)
(8.76467e-06 2.22238e-09 -4.78121e-07 8.76467e-06 -6.28603e-23 8.76467e-06)
(8.46907e-06 2.35389e-09 -4.5571e-07 8.46907e-06 -5.43635e-23 8.46907e-06)
(8.16907e-06 2.48393e-09 -4.33228e-07 8.16907e-06 -7.2825e-23 8.16907e-06)
(7.8656e-06 2.61323e-09 -4.10746e-07 7.8656e-06 -9.03558e-23 7.8656e-06)
(7.55927e-06 2.74293e-09 -3.88335e-07 7.55927e-06 -7.87825e-23 7.55927e-06)
(7.2502e-06 2.87518e-09 -3.66038e-07 7.2502e-06 -8.32166e-23 7.2502e-06)
(6.93807e-06 3.01184e-09 -3.43849e-07 6.93807e-06 -7.76458e-23 6.93807e-06)
(6.62105e-06 3.14979e-09 -3.2171e-07 6.62105e-06 -5.95933e-23 6.62105e-06)
(6.29945e-06 3.28341e-09 -2.99674e-07 6.29945e-06 -5.79721e-23 6.29945e-06)
(5.97527e-06 3.41142e-09 -2.77882e-07 5.97527e-06 -5.55112e-23 5.97527e-06)
(5.64923e-06 3.53586e-09 -2.56411e-07 5.64923e-06 -4.72159e-23 5.64923e-06)
(5.32095e-06 3.65665e-09 -2.35278e-07 5.32095e-06 -3.9613e-23 5.32095e-06)
(4.98961e-06 3.76842e-09 -2.14484e-07 4.98961e-06 -3.61556e-23 4.98961e-06)
(4.65563e-06 3.86419e-09 -1.94102e-07 4.65563e-06 -3.58931e-23 4.65563e-06)
(4.3207e-06 3.94001e-09 -1.74262e-07 4.3207e-06 -3.22079e-23 4.3207e-06)
(3.98596e-06 3.99374e-09 -1.55066e-07 3.98596e-06 -2.59986e-23 3.98596e-06)
(3.65202e-06 4.0217e-09 -1.36592e-07 3.65202e-06 -2.26343e-23 3.65202e-06)
(3.31932e-06 4.01846e-09 -1.1891e-07 3.31932e-06 -1.99847e-23 3.31932e-06)
(2.98841e-06 3.97733e-09 -1.02097e-07 2.98841e-06 -1.61539e-23 2.98841e-06)
(2.66015e-06 3.89013e-09 -8.62409e-08 2.66015e-06 -1.30694e-23 2.66015e-06)
(2.33567e-06 3.74859e-09 -7.14404e-08 2.33567e-06 -1.05949e-23 2.33567e-06)
(2.01657e-06 3.54455e-09 -5.78027e-08 2.01657e-06 -8.11441e-24 2.01657e-06)
(1.70519e-06 3.27195e-09 -4.54457e-08 1.70519e-06 -6.29806e-24 1.70519e-06)
(1.40502e-06 2.92962e-09 -3.44966e-08 1.40502e-06 -4.53358e-24 1.40502e-06)
(1.12095e-06 2.52489e-09 -2.50807e-08 1.12095e-06 -3.10203e-24 1.12095e-06)
(8.59347e-07 2.07644e-09 -1.72985e-08 8.59347e-07 -1.96846e-24 8.59347e-07)
(6.27528e-07 1.61477e-09 -1.1191e-08 6.27528e-07 -1.22073e-24 6.27528e-07)
(4.32179e-07 1.17668e-09 -6.70021e-09 4.32179e-07 -7.32993e-25 4.32179e-07)
(2.77361e-07 7.9549e-10 -3.64848e-09 2.77361e-07 -3.81121e-25 2.77361e-07)
(1.63075e-07 4.92002e-10 -1.76024e-09 1.63075e-07 -1.62832e-25 1.63075e-07)
(8.55067e-08 2.71942e-10 -7.20053e-10 8.55067e-08 -5.23864e-26 8.55067e-08)
(3.88825e-08 1.31634e-10 -2.35298e-10 3.88825e-08 -9.55517e-27 3.88825e-08)
(1.83797e-08 5.02017e-11 -5.02016e-11 1.83797e-08 -1.56123e-27 1.83797e-08)
(6.26546e-08 4.27742e-11 -1.30561e-11 6.26546e-08 -1.88064e-28 6.26546e-08)
(7.14667e-05 2.82001e-09 -1.23207e-05 7.14667e-05 2.40395e-21 7.14667e-05)
(7.11927e-05 8.33253e-09 -1.22584e-05 7.11927e-05 -2.39254e-21 7.11927e-05)
(7.06773e-05 1.36206e-08 -1.21418e-05 7.06773e-05 -6.19757e-21 7.06773e-05)
(6.99513e-05 1.87584e-08 -1.19777e-05 6.99513e-05 -4.18118e-21 6.99513e-05)
(6.904e-05 2.37592e-08 -1.17723e-05 6.904e-05 -4.15799e-21 6.904e-05)
(6.79667e-05 2.86184e-08 -1.15312e-05 6.79667e-05 -3.77087e-21 6.79667e-05)
(6.67507e-05 3.33573e-08 -1.12591e-05 6.67507e-05 -3.41603e-21 6.67507e-05)
(6.54107e-05 3.79901e-08 -1.09607e-05 6.54107e-05 -2.61061e-21 6.54107e-05)
(6.39625e-05 4.25374e-08 -1.06397e-05 6.39625e-05 -2.61924e-21 6.39625e-05)
(6.24209e-05 4.6987e-08 -1.03e-05 6.24209e-05 -2.17592e-21 6.24209e-05)
(6.07987e-05 5.13508e-08 -9.94461e-06 6.07987e-05 -1.75779e-21 6.07987e-05)
(5.91082e-05 5.56428e-08 -9.57676e-06 5.91082e-05 -1.56061e-21 5.91082e-05)
(5.73601e-05 5.98823e-08 -9.19894e-06 5.73601e-05 -1.24817e-21 5.73601e-05)
(5.55644e-05 6.40456e-08 -8.81385e-06 5.55644e-05 -1.17808e-21 5.55644e-05)
(5.37297e-05 6.81346e-08 -8.4236e-06 5.37297e-05 -8.01294e-22 5.37297e-05)
(5.18647e-05 7.2148e-08 -8.03018e-06 5.18647e-05 -5.82753e-22 5.18647e-05)
(4.99758e-05 7.6133e-08 -7.63538e-06 4.99758e-05 -6.192e-22 4.99758e-05)
(4.8069e-05 8.01307e-08 -7.24068e-06 4.8069e-05 -7.47813e-22 4.8069e-05)
(4.61484e-05 8.4096e-08 -6.84733e-06 4.61484e-05 -5.53504e-22 4.61484e-05)
(4.42153e-05 8.8155e-08 -6.45588e-06 4.42153e-05 -6.70957e-22 4.42153e-05)
(4.22666e-05 9.237e-08 -6.06635e-06 4.22666e-05 -6.31136e-22 4.22666e-05)
(4.02901e-05 9.65951e-08 -5.67729e-06 4.02901e-05 -3.65797e-22 4.02901e-05)
(3.82874e-05 1.00699e-07 -5.28955e-06 3.82874e-05 -4.54425e-22 3.82874e-05)
(3.62729e-05 1.04631e-07 -4.90605e-06 3.62729e-05 -5.08405e-22 3.62729e-05)
(3.42515e-05 1.08441e-07 -4.52811e-06 3.42515e-05 -4.14814e-22 3.42515e-05)
(3.22205e-05 1.1215e-07 -4.15594e-06 3.22205e-05 -3.21345e-22 3.22205e-05)
(3.01735e-05 1.15585e-07 -3.78938e-06 3.01735e-05 -2.90884e-22 3.01735e-05)
(2.81131e-05 1.18516e-07 -3.4296e-06 2.81131e-05 -3.023e-22 2.81131e-05)
(2.60508e-05 1.2082e-07 -3.07918e-06 2.60508e-05 -2.91116e-22 2.60508e-05)
(2.3994e-05 1.22433e-07 -2.73993e-06 2.3994e-05 -2.3373e-22 2.3994e-05)
(2.19461e-05 1.23245e-07 -2.41317e-06 2.19461e-05 -2.24958e-22 2.19461e-05)
(1.99091e-05 1.2309e-07 -2.10016e-06 1.99091e-05 -2.07781e-22 1.99091e-05)
(1.78855e-05 1.21743e-07 -1.8021e-06 1.78855e-05 -1.63919e-22 1.78855e-05)
(1.58793e-05 1.18946e-07 -1.52056e-06 1.58793e-05 -1.35746e-22 1.58793e-05)
(1.38967e-05 1.14426e-07 -1.25727e-06 1.38967e-05 -1.10656e-22 1.38967e-05)
(1.19461e-05 1.07921e-07 -1.01417e-06 1.19461e-05 -8.04554e-23 1.19461e-05)
(1.0041e-05 9.92157e-08 -7.93402e-07 1.0041e-05 -5.66328e-23 1.0041e-05)
(8.2024e-06 8.82513e-08 -5.97469e-07 8.2024e-06 -4.36556e-23 8.2024e-06)
(6.46138e-06 7.52485e-08 -4.28928e-07 6.46138e-06 -3.24082e-23 6.46138e-06)
(4.86031e-06 6.08257e-08 -2.90037e-07 4.86031e-06 -1.90927e-23 4.86031e-06)
(3.44923e-06 4.60189e-08 -1.8198e-07 3.44923e-06 -1.04576e-23 3.44923e-06)
(2.27539e-06 3.21101e-08 -1.03958e-07 2.27539e-06 -5.08869e-24 2.27539e-06)
(1.36789e-06 2.02629e-08 -5.26318e-08 1.36789e-06 -2.43858e-24 1.36789e-06)
(7.26347e-07 1.11635e-08 -2.25224e-08 7.26347e-07 -8.45859e-25 7.26347e-07)
(3.21603e-07 4.92518e-09 -7.32167e-09 3.21603e-07 -1.38821e-25 3.21603e-07)
(1.07723e-07 1.37621e-09 -1.37621e-09 1.07723e-07 2.08722e-26 1.07723e-07)
(3.88825e-08 2.35298e-10 -1.31634e-10 3.88825e-08 3.53304e-27 3.88825e-08)
(1.52735e-07 1.67748e-10 -2.88876e-11 1.52735e-07 8.71921e-27 1.52735e-07)
(0.000251847 2.67851e-08 -7.83838e-05 0.000251847 2.99962e-20 0.000251847)
(0.000250933 7.9313e-08 -7.80341e-05 0.000250933 3.02744e-20 0.000250933)
(0.00024922 1.29985e-07 -7.73758e-05 0.00024922 2.29392e-21 0.00024922)
(0.000246803 1.79244e-07 -7.64477e-05 0.000246803 8.97633e-22 0.000246803)
(0.000243765 2.27265e-07 -7.52846e-05 0.000243765 -1.77049e-21 0.000243765)
(0.000240181 2.74379e-07 -7.39152e-05 0.000240181 -2.75417e-21 0.000240181)
(0.000236117 3.20634e-07 -7.23649e-05 0.000236117 -2.02177e-21 0.000236117)
(0.000231631 3.66184e-07 -7.06574e-05 0.000231631 -2.81467e-22 0.000231631)
(0.000226774 4.11361e-07 -6.88137e-05 0.000226774 -2.00634e-21 0.000226774)
(0.000221593 4.56026e-07 -6.68526e-05 0.000221593 -1.02971e-21 0.000221593)
(0.000216131 5.00199e-07 -6.47917e-05 0.000216131 2.50481e-22 0.000216131)
(0.000210425 5.44223e-07 -6.2646e-05 0.000210425 7.89582e-22 0.000210425)
(0.000204511 5.87874e-07 -6.04307e-05 0.000204511 7.81256e-22 0.000204511)
(0.000198423 6.31108e-07 -5.81591e-05 0.000198423 3.64169e-22 0.000198423)
(0.000192185 6.74475e-07 -5.58431e-05 0.000192185 2.15427e-21 0.000192185)
(0.000185829 7.17793e-07 -5.34934e-05 0.000185829 2.28566e-21 0.000185829)
(0.000179373 7.61027e-07 -5.11187e-05 0.000179373 2.03771e-21 0.000179373)
(0.000172839 8.04435e-07 -4.87295e-05 0.000172839 6.55522e-22 0.000172839)
(0.000166239 8.48595e-07 -4.63306e-05 0.000166239 4.51327e-22 0.000166239)
(0.000159576 8.94012e-07 -4.39249e-05 0.000159576 -6.05053e-22 0.000159576)
(0.00015284 9.41408e-07 -4.15133e-05 0.00015284 -6.17109e-22 0.00015284)
(0.000145983 9.90141e-07 -3.90834e-05 0.000145983 7.63592e-22 0.000145983)
(0.000139009 1.03793e-06 -3.66389e-05 0.000139009 1.76749e-22 0.000139009)
(0.000131971 1.08444e-06 -3.42e-05 0.000131971 -6.49882e-22 0.000131971)
(0.000124885 1.13047e-06 -3.17744e-05 0.000124885 -4.1264e-22 0.000124885)
(0.000117739 1.17608e-06 -2.93632e-05 0.000117739 1.00495e-22 0.000117739)
(0.000110507 1.21976e-06 -2.69627e-05 0.000110507 1.83302e-22 0.000110507)
(0.000103195 1.25864e-06 -2.45807e-05 0.000103195 -1.97497e-22 0.000103195)
(9.58473e-05 1.29131e-06 -2.22347e-05 9.58473e-05 -5.15387e-22 9.58473e-05)
(8.84887e-05 1.31724e-06 -1.99383e-05 8.84887e-05 -1.64305e-22 8.84887e-05)
(8.11307e-05 1.33472e-06 -1.77002e-05 8.11307e-05 -2.49498e-22 8.11307e-05)
(7.37787e-05 1.34209e-06 -1.55297e-05 7.37787e-05 -2.47998e-22 7.37787e-05)
(6.64401e-05 1.33682e-06 -1.34364e-05 6.64401e-05 -1.1969e-22 6.64401e-05)
(5.91301e-05 1.31537e-06 -1.1433e-05 5.91301e-05 -1.79608e-22 5.91301e-05)
(5.18694e-05 1.27454e-06 -9.5333e-06 5.18694e-05 -2.49964e-22 5.18694e-05)
(4.46887e-05 1.21093e-06 -7.75399e-06 4.46887e-05 -2.63417e-22 4.46887e-05)
(3.76362e-05 1.12143e-06 -6.11406e-06 3.76362e-05 -1.37849e-22 3.76362e-05)
(3.07896e-05 1.0045e-06 -4.63638e-06 3.07896e-05 -7.6543e-23 3.07896e-05)
(2.42662e-05 8.61577e-07 -3.3457e-06 2.42662e-05 -8.75623e-23 2.42662e-05)
(1.82296e-05 6.98743e-07 -2.26643e-06 1.82296e-05 -6.418e-23 1.82296e-05)
(1.28803e-05 5.2756e-07 -1.41611e-06 1.28803e-05 -3.37108e-23 1.28803e-05)
(8.4166e-06 3.63442e-07 -7.96708e-07 8.4166e-06 -7.46513e-24 8.4166e-06)
(4.97092e-06 2.2132e-07 -3.8824e-07 4.97092e-06 -1.99266e-25 4.97092e-06)
(2.55757e-06 1.11454e-07 -1.51507e-07 2.55757e-06 -1.89389e-25 2.55757e-06)
(1.07024e-06 3.96212e-08 -3.96212e-08 1.07024e-06 6.75369e-25 1.07024e-06)
(3.21603e-07 7.32165e-09 -4.92516e-09 3.21603e-07 3.50782e-25 3.21603e-07)
(8.55067e-08 7.20053e-10 -2.71942e-10 8.55067e-08 2.47426e-26 8.55067e-08)
(2.8016e-07 4.2124e-10 -4.94639e-11 2.8016e-07 2.97205e-26 2.8016e-07)
(0.000553923 1.09658e-07 -0.000228171 0.000553923 7.28734e-20 0.000553923)
(0.000552177 3.2598e-07 -0.000227349 0.000552177 1.28577e-19 0.000552177)
(0.000548897 5.35858e-07 -0.000225803 0.000548897 7.49332e-20 0.000548897)
(0.000544263 7.40211e-07 -0.000223622 0.000544263 4.59937e-20 0.000544263)
(0.000538431 9.41003e-07 -0.000220875 0.000538431 3.71274e-20 0.000538431)
(0.000531533 1.14008e-06 -0.000217627 0.000531533 2.82521e-20 0.000531533)
(0.000523689 1.33799e-06 -0.000213938 0.000523689 2.7124e-20 0.000523689)
(0.000515003 1.53522e-06 -0.00020985 0.000515003 2.55265e-20 0.000515003)
(0.000505568 1.73337e-06 -0.00020541 0.000505568 1.81028e-20 0.000505568)
(0.000495466 1.93193e-06 -0.00020066 0.000495466 1.67952e-20 0.000495466)
(0.000484773 2.13201e-06 -0.000195632 0.000484773 1.98383e-20 0.000484773)
(0.000473555 2.33429e-06 -0.000190358 0.000473555 1.97552e-20 0.000473555)
(0.000461876 2.5386e-06 -0.000184872 0.000461876 1.77214e-20 0.000461876)
(0.000449791 2.74532e-06 -0.000179195 0.000449791 1.70593e-20 0.000449791)
(0.00043735 2.95543e-06 -0.000173354 0.00043735 1.89482e-20 0.00043735)
(0.000424603 3.16995e-06 -0.000167374 0.000424603 1.73648e-20 0.000424603)
(0.000411587 3.38772e-06 -0.000161272 0.000411587 1.76729e-20 0.000411587)
(0.000398333 3.6115e-06 -0.000155065 0.000398333 1.33829e-20 0.000398333)
(0.000384867 3.84403e-06 -0.000148763 0.000384867 9.8864e-21 0.000384867)
(0.000371186 4.08551e-06 -0.000142374 0.000371186 6.68947e-21 0.000371186)
(0.000357263 4.34114e-06 -0.000135889 0.000357263 3.88617e-21 0.000357263)
(0.000342977 4.61008e-06 -0.00012926 0.000342977 5.95928e-21 0.000342977)
(0.000328324 4.88102e-06 -0.00012249 0.000328324 8.21121e-21 0.000328324)
(0.000313418 5.1516e-06 -0.000115638 0.000313418 5.95234e-21 0.000313418)
(0.000298285 5.42682e-06 -0.000108718 0.000298285 4.97746e-21 0.000298285)
(0.000282891 5.70948e-06 -0.000101726 0.000282891 5.46718e-21 0.000282891)
(0.000267151 5.99171e-06 -9.4635e-05 0.000267151 3.9889e-21 0.000267151)
(0.000251068 6.25819e-06 -8.74602e-05 0.000251068 2.19125e-21 0.000251068)
(0.000234733 6.50046e-06 -8.0253e-05 0.000234733 1.17662e-21 0.000234733)
(0.000218195 6.71598e-06 -7.30522e-05 0.000218195 2.53505e-21 0.000218195)
(0.000201463 6.89742e-06 -6.58807e-05 0.000201463 2.60613e-21 0.000201463)
(0.000184536 7.0319e-06 -5.87578e-05 0.000184536 1.91201e-21 0.000184536)
(0.000167419 7.10349e-06 -5.17161e-05 0.000167419 1.7483e-21 0.000167419)
(0.000150133 7.09376e-06 -4.47978e-05 0.000150133 1.377e-21 0.000150133)
(0.000132715 6.97984e-06 -3.80521e-05 0.000132715 5.84987e-22 0.000132715)
(0.000115227 6.7368e-06 -3.15429e-05 0.000115227 1.47048e-22 0.000115227)
(9.77767e-05 6.33999e-06 -2.53512e-05 9.77767e-05 3.59448e-23 9.77767e-05)
(8.05507e-05 5.76998e-06 -1.95821e-05 8.05507e-05 1.28609e-22 8.05507e-05)
(6.38512e-05 5.02142e-06 -1.43629e-05 6.38512e-05 1.19978e-22 6.38512e-05)
(4.81263e-05 4.11448e-06 -9.83878e-06 4.81263e-05 -1.83326e-23 4.81263e-05)
(3.3969e-05 3.10757e-06 -6.14973e-06 3.3969e-05 -1.61287e-24 3.3969e-05)
(2.2022e-05 2.09732e-06 -3.38754e-06 2.2022e-05 -9.0049e-24 2.2022e-05)
(1.27784e-05 1.20058e-06 -1.55042e-06 1.27784e-05 2.10638e-23 1.27784e-05)
(6.38043e-06 5.28767e-07 -5.28766e-07 6.38043e-06 1.00864e-23 6.38043e-06)
(2.55757e-06 1.51507e-07 -1.11454e-07 2.55757e-06 4.70551e-24 2.55757e-06)
(7.26347e-07 2.25224e-08 -1.11635e-08 7.26347e-07 1.45964e-24 7.26347e-07)
(1.63075e-07 1.76024e-09 -4.92001e-10 1.63075e-07 5.67238e-26 1.63075e-07)
(4.44559e-07 8.46343e-10 -7.4161e-11 4.44559e-07 6.09815e-26 4.44559e-07)
(0.000875 2.65689e-07 -0.000401803 0.000875 6.25982e-20 0.000875)
(0.000872667 7.89121e-07 -0.000400646 0.000872667 2.12624e-19 0.000872667)
(0.00086828 1.29719e-06 -0.000398492 0.00086828 1.9355e-19 0.00086828)
(0.00086208 1.79609e-06 -0.000395436 0.00086208 1.23432e-19 0.00086208)
(0.000854267 2.29112e-06 -0.000391576 0.000854267 1.10556e-19 0.000854267)
(0.000845013 2.78473e-06 -0.000387001 0.000845013 9.19888e-20 0.000845013)
(0.000834467 3.28016e-06 -0.000381788 0.000834467 8.33461e-20 0.000834467)
(0.000822767 3.78077e-06 -0.000375995 0.000822767 7.40959e-20 0.000822767)
(0.00081002 4.28945e-06 -0.000369679 0.00081002 5.78464e-20 0.00081002)
(0.00079634 4.80662e-06 -0.000362889 0.00079634 4.25862e-20 0.00079634)
(0.00078182 5.33631e-06 -0.000355659 0.00078182 6.08934e-20 0.00078182)
(0.000766533 5.87835e-06 -0.000348049 0.000766533 5.71706e-20 0.000766533)
(0.000750567 6.43541e-06 -0.000340076 0.000750567 4.81778e-20 0.000750567)
(0.000733987 7.01127e-06 -0.000331782 0.000733987 5.01776e-20 0.000733987)
(0.000716853 7.60414e-06 -0.000323182 0.000716853 4.34117e-20 0.000716853)
(0.00069922 8.21974e-06 -0.000314317 0.00069922 4.36557e-20 0.00069922)
(0.000681133 8.86004e-06 -0.000305205 0.000681133 4.81403e-20 0.000681133)
(0.000662631 9.52865e-06 -0.00029585 0.000662631 3.64858e-20 0.000662631)
(0.000643735 1.02302e-05 -0.000286278 0.000643735 2.82152e-20 0.000643735)
(0.000624434 1.0972e-05 -0.000276478 0.000624434 2.56751e-20 0.000624434)
(0.000604677 1.17718e-05 -0.000266436 0.000604677 1.16642e-20 0.000604677)
(0.000584247 1.26241e-05 -0.000256073 0.000584247 1.55358e-20 0.000584247)
(0.000563111 1.35015e-05 -0.000245381 0.000563111 2.87103e-20 0.000563111)
(0.000541441 1.44045e-05 -0.000234416 0.000541441 2.02228e-20 0.000541441)
(0.000519253 1.53464e-05 -0.000223188 0.000519253 2.00588e-20 0.000519253)
(0.000496465 1.63396e-05 -0.000211663 0.000496465 1.85732e-20 0.000496465)
(0.000472894 1.73669e-05 -0.000199754 0.000472894 9.14591e-21 0.000472894)
(0.000448493 1.83812e-05 -0.000187449 0.000448493 8.60651e-21 0.000448493)
(0.000423389 1.93593e-05 -0.000174841 0.000423389 6.59954e-21 0.000423389)
(0.000397615 2.02923e-05 -0.00016196 0.000397615 9.48268e-21 0.000397615)
(0.000371135 2.11629e-05 -0.000148824 0.000371135 1.20561e-20 0.000371135)
(0.000343883 2.19318e-05 -0.000135425 0.000343883 9.06787e-21 0.000343883)
(0.000315797 2.25381e-05 -0.000121787 0.000315797 8.33829e-21 0.000315797)
(0.000286844 2.29156e-05 -0.000107951 0.000286844 6.17256e-21 0.000286844)
(0.000257009 2.2984e-05 -9.39829e-05 0.000257009 2.55868e-21 0.000257009)
(0.000226309 2.2641e-05 -7.99758e-05 0.000226309 1.43379e-21 0.000226309)
(0.000194839 2.17696e-05 -6.60672e-05 0.000194839 1.91177e-21 0.000194839)
(0.000162855 2.02541e-05 -5.24733e-05 0.000162855 1.66432e-21 0.000162855)
(0.000130859 1.80003e-05 -3.95106e-05 0.000130859 7.28469e-22 0.000130859)
(9.97273e-05 1.49853e-05 -2.76139e-05 9.97273e-05 4.04808e-22 9.97273e-05)
(7.0806e-05 1.13448e-05 -1.73511e-05 7.0806e-05 3.24326e-22 7.0806e-05)
(4.57875e-05 7.46323e-06 -9.33065e-06 4.57875e-05 -5.39807e-23 4.57875e-05)
(2.62133e-05 3.97723e-06 -3.97723e-06 2.62133e-05 2.8681e-23 2.62133e-05)
(1.27784e-05 1.55042e-06 -1.20058e-06 1.27784e-05 7.46504e-23 1.27784e-05)
(4.97092e-06 3.8824e-07 -2.2132e-07 4.97092e-06 2.23216e-23 4.97092e-06)
(1.36789e-06 5.26315e-08 -2.02628e-08 1.36789e-06 4.04828e-24 1.36789e-06)
(2.77361e-07 3.64848e-09 -7.9549e-10 2.77361e-07 1.50217e-25 2.77361e-07)
(6.46126e-07 1.48695e-09 -1.02294e-10 6.46126e-07 1.15405e-25 6.46126e-07)
(0.00113859 4.69081e-07 -0.000529441 0.00113859 -2.02956e-20 0.00113859)
(0.00113595 1.39086e-06 -0.000528214 0.00113595 2.05699e-19 0.00113595)
(0.00113099 2.29037e-06 -0.00052591 0.00113099 2.84513e-19 0.00113099)
(0.00112399 3.18085e-06 -0.000522644 0.00112399 1.85019e-19 0.00112399)
(0.00111515 4.06755e-06 -0.000518528 0.00111515 1.74667e-19 0.00111515)
(0.00110467 4.95785e-06 -0.00051365 0.00110467 1.50752e-19 0.00110467)
(0.00109273 5.86117e-06 -0.00050809 0.00109273 1.34508e-19 0.00109273)
(0.00107947 6.78397e-06 -0.000501908 0.00107947 1.11996e-19 0.00107947)
(0.00106503 7.73253e-06 -0.000495174 0.00106503 9.38594e-20 0.00106503)
(0.0010495 8.71246e-06 -0.000487944 0.0010495 6.38521e-20 0.0010495)
(0.00103301 9.72481e-06 -0.000480248 0.00103301 1.10174e-19 0.00103301)
(0.00101563 1.0779e-05 -0.000472151 0.00101563 1.09548e-19 0.00101563)
(0.00099746 1.18812e-05 -0.000463666 0.00099746 9.18203e-20 0.00099746)
(0.000978567 1.30372e-05 -0.000454848 0.000978567 8.16572e-20 0.000978567)
(0.000959007 1.42524e-05 -0.000445714 0.000959007 5.01749e-20 0.000959007)
(0.00093886 1.55319e-05 -0.00043629 0.00093886 6.53477e-20 0.00093886)
(0.00091816 1.68892e-05 -0.00042661 0.00091816 7.96247e-20 0.00091816)
(0.00089694 1.83324e-05 -0.000416673 0.00089694 5.9232e-20 0.00089694)
(0.000875233 1.98774e-05 -0.000406503 0.000875233 4.78213e-20 0.000875233)
(0.000853 2.15318e-05 -0.000396058 0.000853 4.54387e-20 0.000853)
(0.00083018 2.33017e-05 -0.000385333 0.00083018 2.59488e-20 0.00083018)
(0.0008065 2.51519e-05 -0.000373596 0.0008065 2.78619e-20 0.0008065)
(0.000781887 2.70726e-05 -0.000360736 0.000781887 4.73458e-20 0.000781887)
(0.000756547 2.91116e-05 -0.000347471 0.000756547 3.18191e-20 0.000756547)
(0.00073048 3.12735e-05 -0.000333785 0.00073048 3.61338e-20 0.00073048)
(0.000703553 3.35938e-05 -0.000319629 0.000703553 3.10071e-20 0.000703553)
(0.000675473 3.60473e-05 -0.000304878 0.000675473 1.03251e-20 0.000675473)
(0.000646113 3.85242e-05 -0.000289466 0.000646113 2.68615e-20 0.000646113)
(0.000615621 4.09852e-05 -0.000273475 0.000615621 1.7836e-20 0.000615621)
(0.000583972 4.34256e-05 -0.000256897 0.000583972 1.72075e-20 0.000583972)
(0.000551029 4.58072e-05 -0.000239678 0.000551029 3.32225e-20 0.000551029)
(0.000516613 4.80463e-05 -0.000221779 0.000516613 2.57586e-20 0.000516613)
(0.000480516 5.00142e-05 -0.000203138 0.000480516 1.57422e-20 0.000480516)
(0.000442563 5.15627e-05 -0.000183729 0.000442563 8.30268e-21 0.000442563)
(0.000402571 5.24906e-05 -0.000163554 0.000402571 -3.68362e-22 0.000402571)
(0.00036036 5.2555e-05 -0.000142626 0.00036036 9.92281e-23 0.00036036)
(0.000315809 5.14447e-05 -0.000120995 0.000315809 4.63576e-21 0.000315809)
(0.000269017 4.87887e-05 -9.88512e-05 0.000269017 4.96215e-21 0.000269017)
(0.000220421 4.42104e-05 -7.65451e-05 0.000220421 8.48598e-22 0.000220421)
(0.000171126 3.74081e-05 -5.47612e-05 0.000171126 1.76777e-21 0.000171126)
(0.000123295 2.84671e-05 -3.47529e-05 0.000123295 1.78729e-21 0.000123295)
(8.02833e-05 1.83977e-05 -1.83977e-05 8.02833e-05 2.57908e-22 8.02833e-05)
(4.57875e-05 9.33065e-06 -7.46322e-06 4.57875e-05 2.44579e-22 4.57875e-05)
(2.2022e-05 3.38755e-06 -2.09732e-06 2.2022e-05 1.38676e-22 2.2022e-05)
(8.4166e-06 7.96709e-07 -3.63442e-07 8.4166e-06 2.78583e-23 8.4166e-06)
(2.27539e-06 1.03958e-07 -3.21101e-08 2.27539e-06 7.9247e-24 2.27539e-06)
(4.32179e-07 6.70021e-09 -1.17668e-09 4.32179e-07 3.85809e-25 4.32179e-07)
(8.846e-07 2.38543e-09 -1.32857e-10 8.846e-07 2.22412e-25 8.846e-07)
(0.00133774 7.17276e-07 -0.000622047 0.00133774 -1.33754e-19 0.00133774)
(0.00133494 2.13189e-06 -0.000620751 0.00133494 1.26585e-19 0.00133494)
(0.00132969 3.51403e-06 -0.000618294 0.00132969 3.27079e-19 0.00132969)
(0.00132225 4.8831e-06 -0.000614825 0.00132225 2.08971e-19 0.00132225)
(0.00131287 6.25512e-06 -0.000610461 0.00131287 2.04217e-19 0.00131287)
(0.00130176 7.64166e-06 -0.000605289 0.00130176 1.92893e-19 0.00130176)
(0.00128909 9.05736e-06 -0.000599367 0.00128909 1.79348e-19 0.00128909)
(0.00127503 1.05127e-05 -0.000592804 0.00127503 1.30747e-19 0.00127503)
(0.0012597 1.20152e-05 -0.000585636 0.0012597 1.07762e-19 0.0012597)
(0.00124324 1.35799e-05 -0.00057795 0.00124324 8.0257e-20 0.00124324)
(0.00122574 1.52152e-05 -0.000569772 0.00122574 1.41104e-19 0.00122574)
(0.00120731 1.69289e-05 -0.000561145 0.00120731 1.60567e-19 0.00120731)
(0.00118804 1.87352e-05 -0.000552122 0.00118804 1.28633e-19 0.00118804)
(0.001168 2.06446e-05 -0.000542727 0.001168 9.77415e-20 0.001168)
(0.00114725 2.26685e-05 -0.000532999 0.00114725 5.15847e-20 0.00114725)
(0.00112588 2.48197e-05 -0.000522952 0.00112588 7.97814e-20 0.00112588)
(0.00110392 2.71156e-05 -0.000512603 0.00110392 9.94587e-20 0.00110392)
(0.00108141 2.9571e-05 -0.000501982 0.00108141 8.3395e-20 0.00108141)
(0.00105836 3.22125e-05 -0.000491076 0.00105836 6.82237e-20 0.00105836)
(0.00103475 3.50477e-05 -0.000479885 0.00103475 5.22464e-20 0.00103475)
(0.0010105 3.80574e-05 -0.000468345 0.0010105 4.34505e-20 0.0010105)
(0.00098552 4.12763e-05 -0.000456404 0.00098552 2.27769e-20 0.00098552)
(0.000959733 4.47697e-05 -0.00044402 0.000959733 4.6014e-20 0.000959733)
(0.000933153 4.85607e-05 -0.000431191 0.000933153 4.9596e-20 0.000933153)
(0.000905747 5.2623e-05 -0.000417876 0.000905747 4.83019e-20 0.000905747)
(0.00087736 5.69743e-05 -0.000403973 0.00087736 3.21641e-20 0.00087736)
(0.0008476 6.14846e-05 -0.000388616 0.0008476 1.58579e-20 0.0008476)
(0.000816287 6.59916e-05 -0.000371662 0.000816287 5.25027e-20 0.000816287)
(0.000783573 7.05708e-05 -0.000354002 0.000783573 3.35177e-20 0.000783573)
(0.000749347 7.51958e-05 -0.00033556 0.000749347 2.38638e-20 0.000749347)
(0.000713353 7.97761e-05 -0.000316207 0.000713353 4.62629e-20 0.000713353)
(0.0006753 8.41705e-05 -0.000295835 0.0006753 2.92125e-20 0.0006753)
(0.000634801 8.81654e-05 -0.000274272 0.000634801 4.70876e-21 0.000634801)
(0.000591517 9.1476e-05 -0.000251442 0.000591517 8.41019e-21 0.000591517)
(0.00054506 9.37654e-05 -0.000227253 0.00054506 4.42021e-21 0.00054506)
(0.000494984 9.46097e-05 -0.000201566 0.000494984 3.65673e-21 0.000494984)
(0.000440822 9.34101e-05 -0.000174259 0.000440822 8.01252e-21 0.000440822)
(0.000382343 8.94694e-05 -0.000145315 0.000382343 8.04539e-21 0.000382343)
(0.000319616 8.19985e-05 -0.00011495 0.000319616 2.91787e-21 0.000319616)
(0.000253487 7.02008e-05 -8.38607e-05 0.000253487 1.86176e-21 0.000253487)
(0.0001864 5.38657e-05 -5.38657e-05 0.0001864 3.16952e-21 0.0001864)
(0.000123295 3.47529e-05 -2.84671e-05 0.000123295 1.62256e-21 0.000123295)
(7.0806e-05 1.73511e-05 -1.13448e-05 7.0806e-05 2.67954e-22 7.0806e-05)
(3.3969e-05 6.14973e-06 -3.10757e-06 3.3969e-05 4.45743e-23 3.3969e-05)
(1.28803e-05 1.41611e-06 -5.2756e-07 1.28803e-05 2.32565e-23 1.28803e-05)
(3.44923e-06 1.8198e-07 -4.60189e-08 3.44923e-06 1.22558e-23 3.44923e-06)
(6.27528e-07 1.1191e-08 -1.61477e-09 6.27528e-07 5.54853e-25 6.27528e-07)
(1.15861e-06 3.57842e-09 -1.64431e-10 1.15861e-06 3.47278e-25 1.15861e-06)
(0.00148206 1.01341e-06 -0.000689239 0.00148206 -2.43619e-19 0.00148206)
(0.0014792 3.01264e-06 -0.000687906 0.0014792 1.01604e-20 0.0014792)
(0.00147382 4.97212e-06 -0.000685393 0.00147382 3.09879e-19 0.00147382)
(0.00146622 6.91825e-06 -0.000681833 0.00146622 1.92866e-19 0.00146622)
(0.00145663 8.87335e-06 -0.000677356 0.00145663 2.1057e-19 0.00145663)
(0.00144527 1.08659e-05 -0.000672041 0.00144527 2.23835e-19 0.00144527)
(0.00143234 1.29077e-05 -0.000665978 0.00143234 2.10541e-19 0.00143234)