/*--------------------------------*- C++ -*----------------------------------*\
| =========                 |                                                 |
| \\      /  F ield         | OpenFOAM: The Open Source CFD Toolbox           |
|  \\    /   O peration     | Version:  2212                                  |
|   \\  /    A nd           | Website:  www.openfoam.com                      |
|    \\/     M anipulation  |                                                 |
\*---------------------------------------------------------------------------*/
FoamFile
{
    version     2.0;
    format      ascii;
    arch        "LSB;label=32;scalar=64";
    class       volScalarField;
    location    "43892";
    object      alpha_2;
}
// * * * * * * * * * * * * * * * * * * * * * * * * * * * * * * * * * * * * * //

dimensions      [0 0 0 0 0 0 0];

internalField   nonuniform List<scalar> 
400
(
-0.0866582
-0.0866754
-0.0868093
-0.0873311
-0.0887317
-0.0917469
-0.0973731
-0.10687
-0.12174
-0.143683
-0.174493
-0.215924
-0.269491
-0.336245
-0.416542
-0.509861
-0.614708
-0.728662
-0.848566
-0.970847
-1.09189
-1.20841
-1.31771
-1.41787
-1.50775
-1.58692
-1.65553
-1.71414
-1.76357
-1.80478
-1.83879
-1.86653
-1.8888
-1.90809
-1.91385
-1.91385
-1.91385
-1.91385
-1.91385
-1.91385
-1.91385
-1.91385
-1.91385
-1.91385
-1.91385
-1.91385
-1.91385
-1.91385
-1.91385
-1.91385
-1.91385
-1.91385
-1.91385
-1.91385
-1.91385
-1.91385
-1.91385
-1.91385
-1.91385
-1.91385
-1.91385
-1.91385
-1.91385
-1.91385
-1.91385
-1.91385
-1.91385
-1.91385
-1.91385
-1.91385
-1.91385
-1.91385
-1.91385
-1.91385
-1.91385
-1.91385
-1.91385
-1.91321
-1.91239
-1.91179
-1.91118
-1.91061
-1.91005
-1.9095
-1.90898
-1.90847
-1.90798
-1.9075
-1.90705
-1.90662
-1.9062
-1.9058
-1.90543
-1.90507
-1.90473
-1.90441
-1.90411
-1.90383
-1.90356
-1.90332
-1.90309
-1.90288
-1.90269
-1.90252
-1.90236
-1.90223
-1.9021
-1.902
-1.90191
-1.90184
-1.90178
-1.90174
-1.90171
-1.9017
-1.9017
-1.90172
-1.90175
-1.90179
-1.90185
-1.90192
-1.902
-1.90209
-1.9022
-1.90231
-1.90244
-1.90258
-1.90273
-1.90289
-1.90306
-1.90324
-1.90343
-1.90363
-1.90383
-1.90405
-1.90427
-1.9045
-1.90473
-1.90497
-1.90522
-1.90548
-1.90573
-1.906
-1.90627
-1.90654
-1.90682
-1.9071
-1.90738
-1.90766
-1.90795
-1.90823
-1.90852
-1.90881
-1.9091
-1.90938
-1.90967
-1.90995
-1.91023
-1.91051
-1.91078
-1.91105
-1.91131
-1.91157
-1.91182
-1.91206
-1.91229
-1.91251
-1.91272
-1.91292
-1.91312
-1.9133
-1.91345
-1.91384
-1.91385
-1.91385
-1.91385
-1.91385
-1.91385
-1.91385
-1.91385
-1.91385
-1.91385
-1.91385
-1.91385
-1.91385
-1.91385
-1.91385
-1.91385
-1.91385
-1.91385
-1.91385
-1.91385
-1.91385
-1.91385
-1.91385
-1.91385
-1.91385
-1.91385
-1.91385
-1.91385
-1.91369
-1.9123
-1.91172
-1.91102
-1.91029
-1.90952
-1.90869
-1.90779
-1.90684
-1.90583
-1.90475
-1.90361
-1.9024
-1.90113
-1.89978
-1.89837
-1.89689
-1.89534
-1.89371
-1.89201
-1.89023
-1.88837
-1.88644
-1.88442
-1.88232
-1.88014
-1.87788
-1.87552
-1.87308
-1.87055
-1.86793
-1.86521
-1.8624
-1.85949
-1.85649
-1.85338
-1.85018
-1.84687
-1.84346
-1.83994
-1.83631
-1.83257
-1.82872
-1.82475
-1.82067
-1.81648
-1.81216
-1.80772
-1.80317
-1.79848
-1.79367
-1.78874
-1.78367
-1.77847
-1.77314
-1.76767
-1.76207
-1.75632
-1.75044
-1.74442
-1.73825
-1.73193
-1.72547
-1.71886
-1.7121
-1.70519
-1.69812
-1.6909
-1.68352
-1.67598
-1.66829
-1.66043
-1.65241
-1.64422
-1.63588
-1.62736
-1.61868
-1.60983
-1.60081
-1.59162
-1.58225
-1.57272
-1.56301
-1.55313
-1.54308
-1.53285
-1.52244
-1.51186
-1.50111
-1.49017
-1.47906
-1.46778
-1.45632
-1.44468
-1.43287
-1.42088
-1.40872
-1.39639
-1.38388
-1.37121
-1.35836
-1.34534
-1.33216
-1.31881
-1.30529
-1.29161
-1.27777
-1.26378
-1.24962
-1.23532
-1.22086
-1.20626
-1.1915
-1.17661
-1.16158
-1.14642
-1.13112
-1.1157
-1.10015
-1.08449
-1.06871
-1.05282
-1.03682
-1.02073
-1.00454
-0.988259
-0.971897
-0.955456
-0.938944
-0.922367
-0.905729
-0.889039
-0.872303
-0.855527
-0.838719
-0.821885
-0.805035
-0.788174
-0.77131
-0.754452
-0.737608
-0.720785
-0.703993
-0.687239
-0.670532
-0.653881
-0.637294
-0.620781
-0.604351
-0.588012
-0.571775
-0.555648
-0.53964
-0.523762
-0.508022
-0.492431
-0.476997
-0.461731
-0.446641
-0.431739
-0.417032
-0.402531
-0.388246
-0.374186
-0.360359
-0.346777
-0.333447
-0.32038
-0.307584
-0.295069
-0.282843
-0.270915
-0.259294
-0.247988
-0.237006
-0.226355
-0.216044
-0.20608
-0.196471
-0.187223
-0.178346
-0.169844
-0.161724
-0.153994
-0.146658
-0.139723
-0.133194
-0.127076
-0.121374
-0.116092
-0.111236
-0.106808
-0.102812
-0.0992512
-0.0961291
-0.0934477
-0.0912094
-0.0894158
-0.0880684
-0.0871681
-0.0867147
)
;

boundaryField
{
    topWall
    {
        type            symmetry;
    }
    bottomWall
    {
        type            calculated;
        value           uniform -0.0866582;
    }
    inlet
    {
        type            cyclic;
    }
    outlet
    {
        type            cyclic;
    }
    frontAndBack
    {
        type            empty;
    }
}


// ************************************************************************* //
