/*--------------------------------*- C++ -*----------------------------------*\
| =========                 |                                                 |
| \\      /  F ield         | OpenFOAM: The Open Source CFD Toolbox           |
|  \\    /   O peration     | Version:  2112                                  |
|   \\  /    A nd           | Website:  www.openfoam.com                      |
|    \\/     M anipulation  |                                                 |
\*---------------------------------------------------------------------------*/
FoamFile
{
    version     2.0;
    format      ascii;
    arch        "LSB;label=32;scalar=64";
    class       volVectorField;
    location    "135976";
    object      C;
}
// * * * * * * * * * * * * * * * * * * * * * * * * * * * * * * * * * * * * * //

dimensions      [0 1 0 0 0 0 0];

internalField   nonuniform List<vector> 
400
(
(0.005 0.00019149 0.005)
(0.005 0.000576699 0.005)
(0.005 0.000966391 0.005)
(0.005 0.00136062 0.005)
(0.005 0.00175943 0.005)
(0.005 0.00216289 0.005)
(0.005 0.00257104 0.005)
(0.005 0.00298394 0.005)
(0.005 0.00340165 0.005)
(0.005 0.00382422 0.005)
(0.005 0.00425171 0.005)
(0.005 0.00468417 0.005)
(0.005 0.00512166 0.005)
(0.005 0.00556425 0.005)
(0.005 0.00601199 0.005)
(0.005 0.00646493 0.005)
(0.005 0.00692315 0.005)
(0.005 0.0073867 0.005)
(0.005 0.00785565 0.005)
(0.005 0.00833005 0.005)
(0.005 0.00880998 0.005)
(0.005 0.00929549 0.005)
(0.005 0.00978665 0.005)
(0.005 0.0102835 0.005)
(0.005 0.0107862 0.005)
(0.005 0.0112947 0.005)
(0.005 0.0118091 0.005)
(0.005 0.0123295 0.005)
(0.005 0.012856 0.005)
(0.005 0.0133886 0.005)
(0.005 0.0139274 0.005)
(0.005 0.0144725 0.005)
(0.005 0.0150239 0.005)
(0.005 0.0155817 0.005)
(0.005 0.016146 0.005)
(0.005 0.0167169 0.005)
(0.005 0.0172945 0.005)
(0.005 0.0178787 0.005)
(0.005 0.0184698 0.005)
(0.005 0.0190677 0.005)
(0.005 0.0196726 0.005)
(0.005 0.0202845 0.005)
(0.005 0.0209036 0.005)
(0.005 0.0215298 0.005)
(0.005 0.0221634 0.005)
(0.005 0.0228043 0.005)
(0.005 0.0234527 0.005)
(0.005 0.0241086 0.005)
(0.005 0.0247721 0.005)
(0.005 0.0254434 0.005)
(0.005 0.0261225 0.005)
(0.005 0.0268095 0.005)
(0.005 0.0275045 0.005)
(0.005 0.0282076 0.005)
(0.005 0.0289188 0.005)
(0.005 0.0296384 0.005)
(0.005 0.0303663 0.005)
(0.005 0.0311026 0.005)
(0.005 0.0318476 0.005)
(0.005 0.0326012 0.005)
(0.005 0.0333636 0.005)
(0.005 0.0341349 0.005)
(0.005 0.0349151 0.005)
(0.005 0.0357044 0.005)
(0.005 0.0365029 0.005)
(0.005 0.0373107 0.005)
(0.005 0.0381279 0.005)
(0.005 0.0389547 0.005)
(0.005 0.039791 0.005)
(0.005 0.0406371 0.005)
(0.005 0.041493 0.005)
(0.005 0.0423589 0.005)
(0.005 0.0432348 0.005)
(0.005 0.0441209 0.005)
(0.005 0.0450174 0.005)
(0.005 0.0459243 0.005)
(0.005 0.0468417 0.005)
(0.005 0.0477699 0.005)
(0.005 0.0487088 0.005)
(0.005 0.0496586 0.005)
(0.005 0.0506196 0.005)
(0.005 0.0515916 0.005)
(0.005 0.052575 0.005)
(0.005 0.0535699 0.005)
(0.005 0.0545763 0.005)
(0.005 0.0555945 0.005)
(0.005 0.0566244 0.005)
(0.005 0.0576664 0.005)
(0.005 0.0587205 0.005)
(0.005 0.0597869 0.005)
(0.005 0.0608657 0.005)
(0.005 0.061957 0.005)
(0.005 0.063061 0.005)
(0.005 0.0641779 0.005)
(0.005 0.0653078 0.005)
(0.005 0.0664508 0.005)
(0.005 0.0676072 0.005)
(0.005 0.068777 0.005)
(0.005 0.0699604 0.005)
(0.005 0.0711575 0.005)
(0.005 0.0723687 0.005)
(0.005 0.0735939 0.005)
(0.005 0.0748333 0.005)
(0.005 0.0760872 0.005)
(0.005 0.0773557 0.005)
(0.005 0.0786389 0.005)
(0.005 0.0799371 0.005)
(0.005 0.0812504 0.005)
(0.005 0.082579 0.005)
(0.005 0.083923 0.005)
(0.005 0.0852827 0.005)
(0.005 0.0866582 0.005)
(0.005 0.0880497 0.005)
(0.005 0.0894574 0.005)
(0.005 0.0908815 0.005)
(0.005 0.0923221 0.005)
(0.005 0.0937795 0.005)
(0.005 0.0952539 0.005)
(0.005 0.0967455 0.005)
(0.005 0.0982544 0.005)
(0.005 0.0997808 0.005)
(0.005 0.101325 0.005)
(0.005 0.102887 0.005)
(0.005 0.104468 0.005)
(0.005 0.106066 0.005)
(0.005 0.107684 0.005)
(0.005 0.10932 0.005)
(0.005 0.110975 0.005)
(0.005 0.11265 0.005)
(0.005 0.114344 0.005)
(0.005 0.116057 0.005)
(0.005 0.117791 0.005)
(0.005 0.119545 0.005)
(0.005 0.121319 0.005)
(0.005 0.123114 0.005)
(0.005 0.12493 0.005)
(0.005 0.126767 0.005)
(0.005 0.128625 0.005)
(0.005 0.130505 0.005)
(0.005 0.132407 0.005)
(0.005 0.134331 0.005)
(0.005 0.136277 0.005)
(0.005 0.138246 0.005)
(0.005 0.140238 0.005)
(0.005 0.142253 0.005)
(0.005 0.144291 0.005)
(0.005 0.146354 0.005)
(0.005 0.14844 0.005)
(0.005 0.15055 0.005)
(0.005 0.152686 0.005)
(0.005 0.154845 0.005)
(0.005 0.157031 0.005)
(0.005 0.159241 0.005)
(0.005 0.161477 0.005)
(0.005 0.16374 0.005)
(0.005 0.166028 0.005)
(0.005 0.168343 0.005)
(0.005 0.170685 0.005)
(0.005 0.173055 0.005)
(0.005 0.175452 0.005)
(0.005 0.177877 0.005)
(0.005 0.18033 0.005)
(0.005 0.182812 0.005)
(0.005 0.185322 0.005)
(0.005 0.187862 0.005)
(0.005 0.190431 0.005)
(0.005 0.19303 0.005)
(0.005 0.19566 0.005)
(0.005 0.19832 0.005)
(0.005 0.201011 0.005)
(0.005 0.203733 0.005)
(0.005 0.206487 0.005)
(0.005 0.209273 0.005)
(0.005 0.212092 0.005)
(0.005 0.214943 0.005)
(0.005 0.217828 0.005)
(0.005 0.220746 0.005)
(0.005 0.223698 0.005)
(0.005 0.226684 0.005)
(0.005 0.229705 0.005)
(0.005 0.232761 0.005)
(0.005 0.235853 0.005)
(0.005 0.238981 0.005)
(0.005 0.242145 0.005)
(0.005 0.245346 0.005)
(0.005 0.248585 0.005)
(0.005 0.251861 0.005)
(0.005 0.255175 0.005)
(0.005 0.258528 0.005)
(0.005 0.261919 0.005)
(0.005 0.265351 0.005)
(0.005 0.268822 0.005)
(0.005 0.272333 0.005)
(0.005 0.275886 0.005)
(0.005 0.279479 0.005)
(0.005 0.283115 0.005)
(0.005 0.286793 0.005)
(0.005 0.290513 0.005)
(0.005 0.294277 0.005)
(0.005 0.298085 0.005)
(0.005 0.30175 0.005)
(0.005 0.30525 0.005)
(0.005 0.30875 0.005)
(0.005 0.31225 0.005)
(0.005 0.31575 0.005)
(0.005 0.31925 0.005)
(0.005 0.32275 0.005)
(0.005 0.32625 0.005)
(0.005 0.32975 0.005)
(0.005 0.33325 0.005)
(0.005 0.33675 0.005)
(0.005 0.34025 0.005)
(0.005 0.34375 0.005)
(0.005 0.34725 0.005)
(0.005 0.35075 0.005)
(0.005 0.35425 0.005)
(0.005 0.35775 0.005)
(0.005 0.36125 0.005)
(0.005 0.36475 0.005)
(0.005 0.36825 0.005)
(0.005 0.37175 0.005)
(0.005 0.37525 0.005)
(0.005 0.37875 0.005)
(0.005 0.38225 0.005)
(0.005 0.38575 0.005)
(0.005 0.38925 0.005)
(0.005 0.39275 0.005)
(0.005 0.39625 0.005)
(0.005 0.39975 0.005)
(0.005 0.40325 0.005)
(0.005 0.40675 0.005)
(0.005 0.41025 0.005)
(0.005 0.41375 0.005)
(0.005 0.41725 0.005)
(0.005 0.42075 0.005)
(0.005 0.42425 0.005)
(0.005 0.42775 0.005)
(0.005 0.43125 0.005)
(0.005 0.43475 0.005)
(0.005 0.43825 0.005)
(0.005 0.44175 0.005)
(0.005 0.44525 0.005)
(0.005 0.44875 0.005)
(0.005 0.45225 0.005)
(0.005 0.45575 0.005)
(0.005 0.45925 0.005)
(0.005 0.46275 0.005)
(0.005 0.46625 0.005)
(0.005 0.46975 0.005)
(0.005 0.47325 0.005)
(0.005 0.47675 0.005)
(0.005 0.48025 0.005)
(0.005 0.48375 0.005)
(0.005 0.48725 0.005)
(0.005 0.49075 0.005)
(0.005 0.49425 0.005)
(0.005 0.49775 0.005)
(0.005 0.50125 0.005)
(0.005 0.50475 0.005)
(0.005 0.50825 0.005)
(0.005 0.51175 0.005)
(0.005 0.51525 0.005)
(0.005 0.51875 0.005)
(0.005 0.52225 0.005)
(0.005 0.52575 0.005)
(0.005 0.52925 0.005)
(0.005 0.53275 0.005)
(0.005 0.53625 0.005)
(0.005 0.53975 0.005)
(0.005 0.54325 0.005)
(0.005 0.54675 0.005)
(0.005 0.55025 0.005)
(0.005 0.55375 0.005)
(0.005 0.55725 0.005)
(0.005 0.56075 0.005)
(0.005 0.56425 0.005)
(0.005 0.56775 0.005)
(0.005 0.57125 0.005)
(0.005 0.57475 0.005)
(0.005 0.57825 0.005)
(0.005 0.58175 0.005)
(0.005 0.58525 0.005)
(0.005 0.58875 0.005)
(0.005 0.59225 0.005)
(0.005 0.59575 0.005)
(0.005 0.59925 0.005)
(0.005 0.60275 0.005)
(0.005 0.60625 0.005)
(0.005 0.60975 0.005)
(0.005 0.61325 0.005)
(0.005 0.61675 0.005)
(0.005 0.62025 0.005)
(0.005 0.62375 0.005)
(0.005 0.62725 0.005)
(0.005 0.63075 0.005)
(0.005 0.63425 0.005)
(0.005 0.63775 0.005)
(0.005 0.64125 0.005)
(0.005 0.64475 0.005)
(0.005 0.64825 0.005)
(0.005 0.65175 0.005)
(0.005 0.65525 0.005)
(0.005 0.65875 0.005)
(0.005 0.66225 0.005)
(0.005 0.66575 0.005)
(0.005 0.66925 0.005)
(0.005 0.67275 0.005)
(0.005 0.67625 0.005)
(0.005 0.67975 0.005)
(0.005 0.68325 0.005)
(0.005 0.68675 0.005)
(0.005 0.69025 0.005)
(0.005 0.69375 0.005)
(0.005 0.69725 0.005)
(0.005 0.70075 0.005)
(0.005 0.70425 0.005)
(0.005 0.70775 0.005)
(0.005 0.71125 0.005)
(0.005 0.71475 0.005)
(0.005 0.71825 0.005)
(0.005 0.72175 0.005)
(0.005 0.72525 0.005)
(0.005 0.72875 0.005)
(0.005 0.73225 0.005)
(0.005 0.73575 0.005)
(0.005 0.73925 0.005)
(0.005 0.74275 0.005)
(0.005 0.74625 0.005)
(0.005 0.74975 0.005)
(0.005 0.75325 0.005)
(0.005 0.75675 0.005)
(0.005 0.76025 0.005)
(0.005 0.76375 0.005)
(0.005 0.76725 0.005)
(0.005 0.77075 0.005)
(0.005 0.77425 0.005)
(0.005 0.77775 0.005)
(0.005 0.78125 0.005)
(0.005 0.78475 0.005)
(0.005 0.78825 0.005)
(0.005 0.79175 0.005)
(0.005 0.79525 0.005)
(0.005 0.79875 0.005)
(0.005 0.80225 0.005)
(0.005 0.80575 0.005)
(0.005 0.80925 0.005)
(0.005 0.81275 0.005)
(0.005 0.81625 0.005)
(0.005 0.81975 0.005)
(0.005 0.82325 0.005)
(0.005 0.82675 0.005)
(0.005 0.83025 0.005)
(0.005 0.83375 0.005)
(0.005 0.83725 0.005)
(0.005 0.84075 0.005)
(0.005 0.84425 0.005)
(0.005 0.84775 0.005)
(0.005 0.85125 0.005)
(0.005 0.85475 0.005)
(0.005 0.85825 0.005)
(0.005 0.86175 0.005)
(0.005 0.86525 0.005)
(0.005 0.86875 0.005)
(0.005 0.87225 0.005)
(0.005 0.87575 0.005)
(0.005 0.87925 0.005)
(0.005 0.88275 0.005)
(0.005 0.88625 0.005)
(0.005 0.88975 0.005)
(0.005 0.89325 0.005)
(0.005 0.89675 0.005)
(0.005 0.90025 0.005)
(0.005 0.90375 0.005)
(0.005 0.90725 0.005)
(0.005 0.91075 0.005)
(0.005 0.91425 0.005)
(0.005 0.91775 0.005)
(0.005 0.92125 0.005)
(0.005 0.92475 0.005)
(0.005 0.92825 0.005)
(0.005 0.93175 0.005)
(0.005 0.93525 0.005)
(0.005 0.93875 0.005)
(0.005 0.94225 0.005)
(0.005 0.94575 0.005)
(0.005 0.94925 0.005)
(0.005 0.95275 0.005)
(0.005 0.95625 0.005)
(0.005 0.95975 0.005)
(0.005 0.96325 0.005)
(0.005 0.96675 0.005)
(0.005 0.97025 0.005)
(0.005 0.97375 0.005)
(0.005 0.97725 0.005)
(0.005 0.98075 0.005)
(0.005 0.98425 0.005)
(0.005 0.98775 0.005)
(0.005 0.99125 0.005)
(0.005 0.99475 0.005)
(0.005 0.99825 0.005)
)
;

boundaryField
{
    topWall
    {
        type            symmetry;
    }
    bottomWall
    {
        type            calculated;
        value           uniform (0.005 0 0.005);
    }
    inlet
    {
        type            cyclic;
    }
    outlet
    {
        type            cyclic;
    }
    frontAndBack
    {
        type            empty;
    }
}


// ************************************************************************* //
