/*--------------------------------*- C++ -*----------------------------------*\
| =========                 |                                                 |
| \\      /  F ield         | OpenFOAM: The Open Source CFD Toolbox           |
|  \\    /   O peration     | Version:  2212                                  |
|   \\  /    A nd           | Website:  www.openfoam.com                      |
|    \\/     M anipulation  |                                                 |
\*---------------------------------------------------------------------------*/
FoamFile
{
    version     2.0;
    format      ascii;
    arch        "LSB;label=32;scalar=64";
    class       volSymmTensorField;
    location    "43892";
    object      dBijOld;
}
// * * * * * * * * * * * * * * * * * * * * * * * * * * * * * * * * * * * * * //

dimensions      [0 0 0 0 0 0 0];

internalField   nonuniform List<symmTensor> 
400
(
(1.09753e-09 -3.01811e-18 0 -1.09753e-09 0 0)
(4.03586e-08 -4.57555e-17 0 -4.03586e-08 0 0)
(3.46071e-07 -3.44701e-16 0 -3.46071e-07 0 0)
(1.54655e-06 -6.46536e-15 0 -1.54655e-06 0 0)
(4.8395e-06 -6.44433e-14 0 -4.8395e-06 0 0)
(1.22787e-05 -4.62513e-13 0 -1.22787e-05 0 0)
(2.74382e-05 -2.781e-12 0 -2.74382e-05 0 0)
(5.68028e-05 -1.46158e-11 0 -5.68028e-05 0 0)
(0.000112314 -6.7831e-11 0 -0.000112314 0 0)
(0.000215465 -2.78156e-10 0 -0.000215465 0 0)
(0.000403048 -1.00291e-09 0 -0.000403048 0 0)
(0.000734 -3.14767e-09 0 -0.000734 0 0)
(0.00129571 -8.4705e-09 0 -0.00129571 0 0)
(0.00220692 -1.91121e-08 0 -0.00220692 0 0)
(0.00361351 -3.47909e-08 0 -0.00361351 0 0)
(0.00567427 -4.6713e-08 0 -0.00567427 0 0)
(0.00853597 -3.14397e-08 0 -0.00853597 0 0)
(0.0123019 4.5877e-08 0 -0.0123019 0 0)
(0.0170019 2.10281e-07 0 -0.0170019 0 0)
(0.0225738 4.44923e-07 0 -0.0225738 0 0)
(0.0288639 6.75223e-07 0 -0.0288639 0 0)
(0.0356466 7.93965e-07 0 -0.0356466 0 0)
(0.0426585 7.18904e-07 0 -0.0426585 0 0)
(0.0496356 4.42134e-07 0 -0.0496356 0 0)
(0.0563458 3.58441e-08 0 -0.0563458 0 0)
(0.0626084 -3.84443e-07 0 -0.0626084 0 0)
(0.0683022 -7.16778e-07 0 -0.0683022 0 0)
(0.073362 -9.47419e-07 0 -0.073362 0 0)
(0.0777699 -1.21199e-06 0 -0.0777699 0 0)
(0.081543 -1.5244e-06 0 -0.081543 0 0)
(0.0847237 -1.91767e-07 0 -0.0847237 0 0)
(0.0873641 9.23953e-06 0 -0.0873641 0 0)
(0.0895123 3.06131e-06 0 -0.0895123 0 0)
(0.0913943 -2.22071e-05 0 -0.0913943 0 0)
(0.0916063 -1.21356e-05 0 -0.0916063 0 0)
(0.0911041 1.19694e-05 0 -0.0911041 0 0)
(0.0906646 9.021e-06 0 -0.0906646 0 0)
(0.0903064 8.57641e-07 0 -0.0903064 0 0)
(0.0900185 -7.28545e-07 0 -0.0900185 0 0)
(0.0897904 -2.74531e-07 0 -0.0897904 0 0)
(0.089614 1.44015e-08 0 -0.089614 0 0)
(0.0894821 3.33486e-08 0 -0.0894821 0 0)
(0.0893881 6.22346e-09 0 -0.0893881 0 0)
(0.0893265 -1.09046e-09 0 -0.0893265 0 0)
(0.0892924 1.59076e-09 0 -0.0892924 0 0)
(0.0892816 5.32088e-09 0 -0.0892816 0 0)
(0.0892908 1.21972e-08 0 -0.0892908 0 0)
(0.0893169 2.2434e-08 0 -0.0893169 0 0)
(0.0893572 1.09877e-08 0 -0.0893572 0 0)
(0.0894095 -1.39113e-08 0 -0.0894095 0 0)
(0.0894707 -3.44251e-09 0 -0.0894707 0 0)
(0.0895397 1.98827e-08 0 -0.0895397 0 0)
(0.0896154 1.99492e-08 0 -0.0896154 0 0)
(0.0896969 1.27751e-08 0 -0.0896969 0 0)
(0.0897829 9.87471e-09 0 -0.0897829 0 0)
(0.0898726 9.59392e-09 0 -0.0898726 0 0)
(0.0899651 9.63751e-09 0 -0.0899651 0 0)
(0.0900599 9.44676e-09 0 -0.0900599 0 0)
(0.0901563 9.12426e-09 0 -0.0901563 0 0)
(0.0902539 8.76012e-09 0 -0.0902539 0 0)
(0.0903524 8.36786e-09 0 -0.0903524 0 0)
(0.0904514 7.9462e-09 0 -0.0904514 0 0)
(0.0905507 7.50509e-09 0 -0.0905507 0 0)
(0.0906502 7.06407e-09 0 -0.0906502 0 0)
(0.0907498 6.6294e-09 0 -0.0907498 0 0)
(0.0908495 6.17309e-09 0 -0.0908495 0 0)
(0.0909493 5.80357e-09 0 -0.0909493 0 0)
(0.0910492 6.42154e-09 0 -0.0910492 0 0)
(0.0911496 1.00223e-08 0 -0.0911496 0 0)
(0.0912504 1.57246e-08 0 -0.0912504 0 0)
(0.091352 1.03758e-08 0 -0.091352 0 0)
(0.0914544 -1.72649e-08 0 -0.0914544 0 0)
(0.0915573 3.40362e-08 0 -0.0915573 0 0)
(0.0916602 4.93798e-07 0 -0.0916602 0 0)
(0.0917618 1.4465e-06 0 -0.0917618 0 0)
(0.0918575 -2.64654e-07 0 -0.0918575 0 0)
(0.0919334 -3.3582e-06 0 -0.0919334 0 0)
(0.091897 -1.05344e-06 0 -0.091897 0 0)
(0.0918172 2.13138e-06 0 -0.0918172 0 0)
(0.0917579 9.62646e-07 0 -0.0917579 0 0)
(0.0916983 -2.1366e-07 0 -0.0916983 0 0)
(0.0916414 -9.62011e-08 0 -0.0916414 0 0)
(0.0915866 -2.28014e-08 0 -0.0915866 0 0)
(0.0915333 4.32881e-10 0 -0.0915333 0 0)
(0.0914816 6.50474e-09 0 -0.0914816 0 0)
(0.0914317 4.60599e-09 0 -0.0914317 0 0)
(0.0913835 3.08181e-09 0 -0.0913835 0 0)
(0.0913372 2.54301e-09 0 -0.0913372 0 0)
(0.0912927 2.34253e-09 0 -0.0912927 0 0)
(0.09125 2.20737e-09 0 -0.09125 0 0)
(0.0912093 2.06652e-09 0 -0.0912093 0 0)
(0.0911704 1.92351e-09 0 -0.0911704 0 0)
(0.0911334 1.78835e-09 0 -0.0911334 0 0)
(0.0910984 1.66414e-09 0 -0.0910984 0 0)
(0.0910652 1.55025e-09 0 -0.0910652 0 0)
(0.0910338 1.44537e-09 0 -0.0910338 0 0)
(0.0910044 1.34871e-09 0 -0.0910044 0 0)
(0.0909768 1.25962e-09 0 -0.0909768 0 0)
(0.090951 1.17731e-09 0 -0.090951 0 0)
(0.0909271 1.10117e-09 0 -0.0909271 0 0)
(0.0909049 1.03078e-09 0 -0.0909049 0 0)
(0.0908846 9.65593e-10 0 -0.0908846 0 0)
(0.0908659 9.05252e-10 0 -0.0908659 0 0)
(0.090849 8.49318e-10 0 -0.090849 0 0)
(0.0908338 7.97375e-10 0 -0.0908338 0 0)
(0.0908203 7.49174e-10 0 -0.0908203 0 0)
(0.0908084 7.04438e-10 0 -0.0908084 0 0)
(0.0907981 6.62804e-10 0 -0.0907981 0 0)
(0.0907894 6.24026e-10 0 -0.0907894 0 0)
(0.0907823 5.88052e-10 0 -0.0907823 0 0)
(0.0907767 5.54488e-10 0 -0.0907767 0 0)
(0.0907726 5.23126e-10 0 -0.0907726 0 0)
(0.0907699 4.93965e-10 0 -0.0907699 0 0)
(0.0907687 4.66777e-10 0 -0.0907687 0 0)
(0.0907689 4.4134e-10 0 -0.0907689 0 0)
(0.0907705 4.17544e-10 0 -0.0907705 0 0)
(0.0907734 3.95367e-10 0 -0.0907734 0 0)
(0.0907777 3.74609e-10 0 -0.0907777 0 0)
(0.0907832 3.55236e-10 0 -0.0907832 0 0)
(0.09079 3.37069e-10 0 -0.09079 0 0)
(0.090798 3.1981e-10 0 -0.090798 0 0)
(0.0908072 3.04042e-10 0 -0.0908072 0 0)
(0.0908175 2.89248e-10 0 -0.0908175 0 0)
(0.090829 2.75025e-10 0 -0.090829 0 0)
(0.0908416 2.61991e-10 0 -0.0908416 0 0)
(0.0908552 2.49499e-10 0 -0.0908552 0 0)
(0.0908698 2.3799e-10 0 -0.0908698 0 0)
(0.0908855 2.2737e-10 0 -0.0908855 0 0)
(0.0909021 2.16835e-10 0 -0.0909021 0 0)
(0.0909196 2.07379e-10 0 -0.0909196 0 0)
(0.0909381 1.98724e-10 0 -0.0909381 0 0)
(0.0909573 1.89844e-10 0 -0.0909573 0 0)
(0.0909775 1.81818e-10 0 -0.0909775 0 0)
(0.0909984 1.74916e-10 0 -0.0909984 0 0)
(0.09102 1.67684e-10 0 -0.09102 0 0)
(0.0910424 1.60951e-10 0 -0.0910424 0 0)
(0.0910654 1.55054e-10 0 -0.0910654 0 0)
(0.0910891 1.49106e-10 0 -0.0910891 0 0)
(0.0911134 1.43772e-10 0 -0.0911134 0 0)
(0.0911383 1.38686e-10 0 -0.0911383 0 0)
(0.0911637 1.33981e-10 0 -0.0911637 0 0)
(0.0911895 1.29672e-10 0 -0.0911895 0 0)
(0.0912159 1.25183e-10 0 -0.0912159 0 0)
(0.0912426 1.21491e-10 0 -0.0912426 0 0)
(0.0912696 1.18086e-10 0 -0.0912696 0 0)
(0.091297 1.14592e-10 0 -0.091297 0 0)
(0.0913247 1.11365e-10 0 -0.0913247 0 0)
(0.0913525 1.08546e-10 0 -0.0913525 0 0)
(0.0913806 1.06134e-10 0 -0.0913806 0 0)
(0.0914087 1.0346e-10 0 -0.0914087 0 0)
(0.091437 1.01109e-10 0 -0.091437 0 0)
(0.0914652 9.94106e-11 0 -0.0914652 0 0)
(0.0914934 9.74595e-11 0 -0.0914934 0 0)
(0.0915216 9.54239e-11 0 -0.0915216 0 0)
(0.0915495 9.4178e-11 0 -0.0915495 0 0)
(0.0915773 9.29738e-11 0 -0.0915773 0 0)
(0.0916048 9.17567e-11 0 -0.0916048 0 0)
(0.0916319 9.09582e-11 0 -0.0916319 0 0)
(0.0916587 8.80681e-11 0 -0.0916587 0 0)
(0.091685 7.70164e-11 0 -0.091685 0 0)
(0.0917107 5.67939e-11 0 -0.0917107 0 0)
(0.0917359 6.92738e-11 0 -0.0917359 0 0)
(0.0917603 2.33713e-10 0 -0.0917603 0 0)
(0.091784 1.03621e-09 0 -0.091784 0 0)
(0.0918068 2.09274e-09 0 -0.0918068 0 0)
(0.0918287 -3.25136e-09 0 -0.0918287 0 0)
(0.0918495 -1.23328e-08 0 -0.0918495 0 0)
(0.0918691 -6.48153e-08 0 -0.0918691 0 0)
(0.091888 -2.08151e-07 0 -0.091888 0 0)
(0.0919064 9.33419e-07 0 -0.0919064 0 0)
(0.0919214 8.29195e-07 0 -0.0919214 0 0)
(0.0919594 -1.60077e-06 0 -0.0919594 0 0)
(0.0919327 -9.68417e-07 0 -0.0919327 0 0)
(0.0918853 6.35116e-07 0 -0.0918853 0 0)
(0.0918269 3.15962e-07 0 -0.0918269 0 0)
(0.0917623 5.82513e-08 0 -0.0917623 0 0)
(0.0916938 7.31952e-09 0 -0.0916938 0 0)
(0.0916233 1.56266e-08 0 -0.0916233 0 0)
(0.0915521 1.49693e-08 0 -0.0915521 0 0)
(0.0914813 6.81822e-09 0 -0.0914813 0 0)
(0.0914116 -5.62126e-10 0 -0.0914116 0 0)
(0.0913437 -5.72733e-09 0 -0.0913437 0 0)
(0.0912784 -9.66211e-09 0 -0.0912784 0 0)
(0.0912166 -1.29057e-08 0 -0.0912166 0 0)
(0.0911593 -1.53953e-08 0 -0.0911593 0 0)
(0.0911079 -1.67848e-08 0 -0.0911079 0 0)
(0.0910641 -1.65324e-08 0 -0.0910641 0 0)
(0.09103 -1.38909e-08 0 -0.09103 0 0)
(0.091008 -7.89006e-09 0 -0.091008 0 0)
(0.091001 2.97104e-09 0 -0.091001 0 0)
(0.091012 2.16371e-08 0 -0.091012 0 0)
(0.0910442 5.21111e-08 0 -0.0910442 0 0)
(0.0911003 9.12374e-08 0 -0.0911003 0 0)
(0.0911825 1.15334e-07 0 -0.0911825 0 0)
(0.091291 1.2219e-07 0 -0.091291 0 0)
(0.0914237 3.28412e-07 0 -0.0914237 0 0)
(0.0915745 1.20765e-06 0 -0.0915745 0 0)
(0.0917324 1.8941e-06 0 -0.0917324 0 0)
(0.0918743 -3.43256e-06 0 -0.0918743 0 0)
(0.0919446 -4.85086e-06 0 -0.0919446 0 0)
(0.091808 3.1086e-06 0 -0.091808 0 0)
(0.091751 2.95674e-06 0 -0.091751 0 0)
(0.091682 -7.81242e-07 0 -0.091682 0 0)
(0.0916102 -2.05074e-07 0 -0.0916102 0 0)
(0.0915347 -3.51862e-08 0 -0.0915347 0 0)
(0.0914531 -9.87728e-09 0 -0.0914531 0 0)
(0.0913656 7.55248e-09 0 -0.0913656 0 0)
(0.0912722 3.04675e-09 0 -0.0912722 0 0)
(0.0911727 3.66977e-10 0 -0.0911727 0 0)
(0.0910672 -6.39674e-11 0 -0.0910672 0 0)
(0.0909554 -8.53351e-11 0 -0.0909554 0 0)
(0.0908373 -1.82395e-11 0 -0.0908373 0 0)
(0.0907128 9.73132e-12 0 -0.0907128 0 0)
(0.0905817 9.64832e-12 0 -0.0905817 0 0)
(0.090444 4.01427e-12 0 -0.090444 0 0)
(0.0902994 -1.6594e-12 0 -0.0902994 0 0)
(0.090148 -6.83236e-12 0 -0.090148 0 0)
(0.0899895 -1.18675e-11 0 -0.0899895 0 0)
(0.0898239 -1.69796e-11 0 -0.0898239 0 0)
(0.0896511 -2.21906e-11 0 -0.0896511 0 0)
(0.0894709 -2.7466e-11 0 -0.0894709 0 0)
(0.0892832 -3.27763e-11 0 -0.0892832 0 0)
(0.0890879 -3.81028e-11 0 -0.0890879 0 0)
(0.0888849 -4.34359e-11 0 -0.0888849 0 0)
(0.0886741 -4.87687e-11 0 -0.0886741 0 0)
(0.0884552 -5.40964e-11 0 -0.0884552 0 0)
(0.0882283 -5.94188e-11 0 -0.0882283 0 0)
(0.0879932 -6.47303e-11 0 -0.0879932 0 0)
(0.0877498 -7.00401e-11 0 -0.0877498 0 0)
(0.0874979 -7.53462e-11 0 -0.0874979 0 0)
(0.0872375 -8.06317e-11 0 -0.0872375 0 0)
(0.0869684 -8.59111e-11 0 -0.0869684 0 0)
(0.0866906 -9.11892e-11 0 -0.0866906 0 0)
(0.0864038 -9.64524e-11 0 -0.0864038 0 0)
(0.086108 -1.01704e-10 0 -0.086108 0 0)
(0.0858031 -1.06941e-10 0 -0.0858031 0 0)
(0.0854889 -1.12162e-10 0 -0.0854889 0 0)
(0.0851654 -1.17363e-10 0 -0.0851654 0 0)
(0.0848324 -1.22538e-10 0 -0.0848324 0 0)
(0.0844899 -1.27686e-10 0 -0.0844899 0 0)
(0.0841377 -1.328e-10 0 -0.0841377 0 0)
(0.0837757 -1.37873e-10 0 -0.0837757 0 0)
(0.0834039 -1.42899e-10 0 -0.0834039 0 0)
(0.0830221 -1.47871e-10 0 -0.0830221 0 0)
(0.0826302 -1.52785e-10 0 -0.0826302 0 0)
(0.0822282 -1.57628e-10 0 -0.0822282 0 0)
(0.081816 -1.62396e-10 0 -0.081816 0 0)
(0.0813935 -1.67079e-10 0 -0.0813935 0 0)
(0.0809606 -1.71657e-10 0 -0.0809606 0 0)
(0.0805172 -1.76128e-10 0 -0.0805172 0 0)
(0.0800633 -1.80481e-10 0 -0.0800633 0 0)
(0.0795989 -1.84702e-10 0 -0.0795989 0 0)
(0.0791237 -1.88781e-10 0 -0.0791237 0 0)
(0.0786379 -1.92709e-10 0 -0.0786379 0 0)
(0.0781413 -1.96459e-10 0 -0.0781413 0 0)
(0.0776339 -2.00027e-10 0 -0.0776339 0 0)
(0.0771156 -2.0341e-10 0 -0.0771156 0 0)
(0.0765865 -2.06572e-10 0 -0.0765865 0 0)
(0.0760465 -2.0951e-10 0 -0.0760465 0 0)
(0.0754956 -2.12212e-10 0 -0.0754956 0 0)
(0.0749337 -2.14647e-10 0 -0.0749337 0 0)
(0.074361 -2.16821e-10 0 -0.074361 0 0)
(0.0737773 -2.18712e-10 0 -0.0737773 0 0)
(0.0731827 -2.20297e-10 0 -0.0731827 0 0)
(0.0725772 -2.2156e-10 0 -0.0725772 0 0)
(0.0719609 -2.2249e-10 0 -0.0719609 0 0)
(0.0713337 -2.23078e-10 0 -0.0713337 0 0)
(0.0706958 -2.23295e-10 0 -0.0706958 0 0)
(0.0700471 -2.23137e-10 0 -0.0700471 0 0)
(0.0693878 -2.22587e-10 0 -0.0693878 0 0)
(0.0687178 -2.21622e-10 0 -0.0687178 0 0)
(0.0680374 -2.20232e-10 0 -0.0680374 0 0)
(0.0673466 -2.18406e-10 0 -0.0673466 0 0)
(0.0666455 -2.16138e-10 0 -0.0666455 0 0)
(0.0659342 -2.13411e-10 0 -0.0659342 0 0)
(0.0652129 -2.10204e-10 0 -0.0652129 0 0)
(0.0644816 -2.06514e-10 0 -0.0644816 0 0)
(0.0637406 -2.02337e-10 0 -0.0637406 0 0)
(0.06299 -1.97703e-10 0 -0.06299 0 0)
(0.0622299 -1.92588e-10 0 -0.0622299 0 0)
(0.0614606 -1.86909e-10 0 -0.0614606 0 0)
(0.0606823 -1.80652e-10 0 -0.0606823 0 0)
(0.0598951 -1.73854e-10 0 -0.0598951 0 0)
(0.0590993 -1.66565e-10 0 -0.0590993 0 0)
(0.0582952 -1.58803e-10 0 -0.0582952 0 0)
(0.0574829 -1.50536e-10 0 -0.0574829 0 0)
(0.0566627 -1.41745e-10 0 -0.0566627 0 0)
(0.0558349 -1.32455e-10 0 -0.0558349 0 0)
(0.0549999 -1.22676e-10 0 -0.0549999 0 0)
(0.0541578 -1.12406e-10 0 -0.0541578 0 0)
(0.053309 -1.0167e-10 0 -0.053309 0 0)
(0.0524539 -9.048e-11 0 -0.0524539 0 0)
(0.0515927 -7.88492e-11 0 -0.0515927 0 0)
(0.0507258 -6.6805e-11 0 -0.0507258 0 0)
(0.0498536 -5.437e-11 0 -0.0498536 0 0)
(0.0489765 -4.15616e-11 0 -0.0489765 0 0)
(0.0480948 -2.84065e-11 0 -0.0480948 0 0)
(0.0472089 -1.49434e-11 0 -0.0472089 0 0)
(0.0463193 -1.20003e-12 0 -0.0463193 0 0)
(0.0454263 1.27946e-11 0 -0.0454263 0 0)
(0.0445305 2.69952e-11 0 -0.0445305 0 0)
(0.0436322 4.13611e-11 0 -0.0436322 0 0)
(0.0427318 5.58597e-11 0 -0.0427318 0 0)
(0.04183 7.04466e-11 0 -0.04183 0 0)
(0.0409271 8.50746e-11 0 -0.0409271 0 0)
(0.0400236 9.97006e-11 0 -0.0400236 0 0)
(0.03912 1.14273e-10 0 -0.03912 0 0)
(0.0382168 1.28745e-10 0 -0.0382168 0 0)
(0.0373145 1.4307e-10 0 -0.0373145 0 0)
(0.0364137 1.57195e-10 0 -0.0364137 0 0)
(0.0355148 1.71075e-10 0 -0.0355148 0 0)
(0.0346183 1.84655e-10 0 -0.0346183 0 0)
(0.0337249 1.97882e-10 0 -0.0337249 0 0)
(0.032835 2.1071e-10 0 -0.032835 0 0)
(0.0319491 2.23084e-10 0 -0.0319491 0 0)
(0.0310678 2.34964e-10 0 -0.0310678 0 0)
(0.0301917 2.46294e-10 0 -0.0301917 0 0)
(0.0293212 2.57027e-10 0 -0.0293212 0 0)
(0.0284569 2.67123e-10 0 -0.0284569 0 0)
(0.0275994 2.76535e-10 0 -0.0275994 0 0)
(0.0267491 2.85227e-10 0 -0.0267491 0 0)
(0.0259066 2.93156e-10 0 -0.0259066 0 0)
(0.0250724 3.00294e-10 0 -0.0250724 0 0)
(0.0242471 3.06601e-10 0 -0.0242471 0 0)
(0.0234311 3.12054e-10 0 -0.0234311 0 0)
(0.022625 3.16637e-10 0 -0.022625 0 0)
(0.0218292 3.20326e-10 0 -0.0218292 0 0)
(0.0210443 3.23101e-10 0 -0.0210443 0 0)
(0.0202706 3.24952e-10 0 -0.0202706 0 0)
(0.0195087 3.2588e-10 0 -0.0195087 0 0)
(0.018759 3.25881e-10 0 -0.018759 0 0)
(0.0180219 3.24958e-10 0 -0.0180219 0 0)
(0.0172979 3.23121e-10 0 -0.0172979 0 0)
(0.0165874 3.20384e-10 0 -0.0165874 0 0)
(0.0158906 3.16766e-10 0 -0.0158906 0 0)
(0.0152081 3.12291e-10 0 -0.0152081 0 0)
(0.0145401 3.06989e-10 0 -0.0145401 0 0)
(0.013887 3.00891e-10 0 -0.013887 0 0)
(0.013249 2.94037e-10 0 -0.013249 0 0)
(0.0126265 2.86468e-10 0 -0.0126265 0 0)
(0.0120196 2.78231e-10 0 -0.0120196 0 0)
(0.0114287 2.69377e-10 0 -0.0114287 0 0)
(0.0108539 2.59958e-10 0 -0.0108539 0 0)
(0.0102955 2.5003e-10 0 -0.0102955 0 0)
(0.00975349 2.39652e-10 0 -0.00975349 0 0)
(0.00922811 2.28886e-10 0 -0.00922811 0 0)
(0.00871943 2.17794e-10 0 -0.00871943 0 0)
(0.00822753 2.0644e-10 0 -0.00822753 0 0)
(0.00775246 1.94889e-10 0 -0.00775246 0 0)
(0.00729423 1.83203e-10 0 -0.00729423 0 0)
(0.00685285 1.7145e-10 0 -0.00685285 0 0)
(0.00642826 1.59691e-10 0 -0.00642826 0 0)
(0.00602042 1.47989e-10 0 -0.00602042 0 0)
(0.00562923 1.36405e-10 0 -0.00562923 0 0)
(0.00525456 1.24997e-10 0 -0.00525456 0 0)
(0.00489628 1.13817e-10 0 -0.00489628 0 0)
(0.00455421 1.0292e-10 0 -0.00455421 0 0)
(0.00422815 9.23543e-11 0 -0.00422815 0 0)
(0.00391787 8.21632e-11 0 -0.00391787 0 0)
(0.00362313 7.23871e-11 0 -0.00362313 0 0)
(0.00334366 6.30614e-11 0 -0.00334366 0 0)
(0.00307914 5.4217e-11 0 -0.00307914 0 0)
(0.00282927 4.58796e-11 0 -0.00282927 0 0)
(0.00259371 3.80694e-11 0 -0.00259371 0 0)
(0.00237209 3.08025e-11 0 -0.00237209 0 0)
(0.00216403 2.40882e-11 0 -0.00216403 0 0)
(0.00196913 1.79331e-11 0 -0.00196913 0 0)
(0.00178698 1.23375e-11 0 -0.00178698 0 0)
(0.00161716 7.29693e-12 0 -0.00161716 0 0)
(0.00145922 2.80273e-12 0 -0.00145922 0 0)
(0.0013127 -1.15804e-12 0 -0.0013127 0 0)
(0.00117715 -4.60238e-12 0 -0.00117715 0 0)
(0.0010521 -7.5508e-12 0 -0.0010521 0 0)
(0.000937053 -1.00275e-11 0 -0.000937053 0 0)
(0.000831545 -1.20585e-11 0 -0.000831545 0 0)
(0.000735083 -1.36726e-11 0 -0.000735083 0 0)
(0.000647184 -1.49001e-11 0 -0.000647184 0 0)
(0.00056736 -1.57731e-11 0 -0.00056736 0 0)
(0.000495129 -1.6325e-11 0 -0.000495129 0 0)
(0.000430014 -1.65879e-11 0 -0.000430014 0 0)
(0.000371542 -1.6596e-11 0 -0.000371542 0 0)
(0.000319249 -1.63811e-11 0 -0.000319249 0 0)
(0.000272683 -1.59749e-11 0 -0.000272683 0 0)
(0.000231402 -1.54079e-11 0 -0.000231402 0 0)
(0.000194977 -1.47085e-11 0 -0.000194977 0 0)
(0.000162997 -1.39036e-11 0 -0.000162997 0 0)
(0.000135065 -1.30174e-11 0 -0.000135065 0 0)
(0.000110805 -1.2072e-11 0 -0.000110805 0 0)
(8.98604e-05 -1.1088e-11 0 -8.98604e-05 0 0)
(7.18945e-05 -1.00843e-11 0 -7.18945e-05 0 0)
(5.65955e-05 -9.07131e-12 0 -5.65955e-05 0 0)
(4.36748e-05 -8.03374e-12 0 -4.36748e-05 0 0)
(3.28695e-05 -6.95487e-12 0 -3.28695e-05 0 0)
(2.39429e-05 -5.98998e-12 0 -2.39429e-05 0 0)
(1.6686e-05 -5.58145e-12 0 -1.6686e-05 0 0)
(1.09175e-05 -5.37042e-12 0 -1.09175e-05 0 0)
(6.4855e-06 -1.8884e-12 0 -6.4855e-06 0 0)
(3.26713e-06 7.6374e-12 0 -3.26713e-06 0 0)
(1.17005e-06 2.69708e-12 0 -1.17005e-06 0 0)
(1.30124e-07 -3.77777e-12 0 -1.30124e-07 0 0)
)
;

boundaryField
{
    topWall
    {
        type            symmetry;
    }
    bottomWall
    {
        type            calculated;
        value           uniform (0 0 0 0 0 0);
    }
    inlet
    {
        type            cyclic;
    }
    outlet
    {
        type            cyclic;
    }
    frontAndBack
    {
        type            empty;
    }
}


// ************************************************************************* //
