/*--------------------------------*- C++ -*----------------------------------*\
| =========                 |                                                 |
| \\      /  F ield         | OpenFOAM: The Open Source CFD Toolbox           |
|  \\    /   O peration     | Version:  2212                                  |
|   \\  /    A nd           | Website:  www.openfoam.com                      |
|    \\/     M anipulation  |                                                 |
\*---------------------------------------------------------------------------*/
FoamFile
{
    version     2.0;
    format      ascii;
    arch        "LSB;label=32;scalar=64";
    class       volSymmTensorField;
    location    "43892";
    object      dBij;
}
// * * * * * * * * * * * * * * * * * * * * * * * * * * * * * * * * * * * * * //

dimensions      [0 0 0 0 0 0 0];

internalField   nonuniform List<symmTensor> 
400
(
(1.09753e-09 -3.76748e-18 0 -1.09753e-09 0 0)
(4.03586e-08 -6.10594e-17 0 -4.03586e-08 0 0)
(3.46071e-07 -2.83527e-16 0 -3.46071e-07 0 0)
(1.54655e-06 -6.47916e-15 0 -1.54655e-06 0 0)
(4.8395e-06 -6.44348e-14 0 -4.8395e-06 0 0)
(1.22787e-05 -4.62507e-13 0 -1.22787e-05 0 0)
(2.74382e-05 -2.78102e-12 0 -2.74382e-05 0 0)
(5.68028e-05 -1.46158e-11 0 -5.68028e-05 0 0)
(0.000112314 -6.7831e-11 0 -0.000112314 0 0)
(0.000215465 -2.78156e-10 0 -0.000215465 0 0)
(0.000403048 -1.0029e-09 0 -0.000403048 0 0)
(0.000734 -3.14767e-09 0 -0.000734 0 0)
(0.00129571 -8.4705e-09 0 -0.00129571 0 0)
(0.00220691 -1.91121e-08 0 -0.00220691 0 0)
(0.00361351 -3.47909e-08 0 -0.00361351 0 0)
(0.00567427 -4.6713e-08 0 -0.00567427 0 0)
(0.00853597 -3.14397e-08 0 -0.00853597 0 0)
(0.0123019 4.5877e-08 0 -0.0123019 0 0)
(0.0170019 2.10281e-07 0 -0.0170019 0 0)
(0.0225738 4.44923e-07 0 -0.0225738 0 0)
(0.0288639 6.75223e-07 0 -0.0288639 0 0)
(0.0356466 7.93965e-07 0 -0.0356466 0 0)
(0.0426585 7.18905e-07 0 -0.0426585 0 0)
(0.0496356 4.42135e-07 0 -0.0496356 0 0)
(0.0563458 3.58448e-08 0 -0.0563458 0 0)
(0.0626084 -3.84442e-07 0 -0.0626084 0 0)
(0.0683021 -7.16777e-07 0 -0.0683021 0 0)
(0.073362 -9.47417e-07 0 -0.073362 0 0)
(0.0777699 -1.21199e-06 0 -0.0777699 0 0)
(0.081543 -1.52439e-06 0 -0.081543 0 0)
(0.0847237 -1.91767e-07 0 -0.0847237 0 0)
(0.0873641 9.23953e-06 0 -0.0873641 0 0)
(0.0895123 3.06132e-06 0 -0.0895123 0 0)
(0.0913943 -2.22071e-05 0 -0.0913943 0 0)
(0.0916063 -1.21356e-05 0 -0.0916063 0 0)
(0.0911041 1.19694e-05 0 -0.0911041 0 0)
(0.0906646 9.02101e-06 0 -0.0906646 0 0)
(0.0903064 8.57646e-07 0 -0.0903064 0 0)
(0.0900185 -7.28543e-07 0 -0.0900185 0 0)
(0.0897904 -2.74529e-07 0 -0.0897904 0 0)
(0.089614 1.44039e-08 0 -0.089614 0 0)
(0.0894821 3.33512e-08 0 -0.0894821 0 0)
(0.0893881 6.22614e-09 0 -0.0893881 0 0)
(0.0893265 -1.08771e-09 0 -0.0893265 0 0)
(0.0892924 1.5936e-09 0 -0.0892924 0 0)
(0.0892816 5.3238e-09 0 -0.0892816 0 0)
(0.0892908 1.22002e-08 0 -0.0892908 0 0)
(0.0893169 2.24371e-08 0 -0.0893169 0 0)
(0.0893572 1.09909e-08 0 -0.0893572 0 0)
(0.0894095 -1.39081e-08 0 -0.0894095 0 0)
(0.0894707 -3.43926e-09 0 -0.0894707 0 0)
(0.0895397 1.9886e-08 0 -0.0895397 0 0)
(0.0896154 1.99526e-08 0 -0.0896154 0 0)
(0.0896969 1.27786e-08 0 -0.0896969 0 0)
(0.0897829 9.8782e-09 0 -0.0897829 0 0)
(0.0898726 9.59745e-09 0 -0.0898726 0 0)
(0.0899651 9.64108e-09 0 -0.0899651 0 0)
(0.0900599 9.45037e-09 0 -0.0900599 0 0)
(0.0901563 9.1279e-09 0 -0.0901563 0 0)
(0.0902539 8.76378e-09 0 -0.0902539 0 0)
(0.0903524 8.37154e-09 0 -0.0903524 0 0)
(0.0904514 7.94989e-09 0 -0.0904514 0 0)
(0.0905507 7.50879e-09 0 -0.0905507 0 0)
(0.0906502 7.06777e-09 0 -0.0906502 0 0)
(0.0907498 6.6331e-09 0 -0.0907498 0 0)
(0.0908495 6.17678e-09 0 -0.0908495 0 0)
(0.0909493 5.80725e-09 0 -0.0909493 0 0)
(0.0910492 6.42519e-09 0 -0.0910492 0 0)
(0.0911496 1.00259e-08 0 -0.0911496 0 0)
(0.0912504 1.57281e-08 0 -0.0912504 0 0)
(0.091352 1.03794e-08 0 -0.091352 0 0)
(0.0914544 -1.72612e-08 0 -0.0914544 0 0)
(0.0915573 3.40388e-08 0 -0.0915573 0 0)
(0.0916602 4.93797e-07 0 -0.0916602 0 0)
(0.0917618 1.44649e-06 0 -0.0917618 0 0)
(0.0918575 -2.6463e-07 0 -0.0918575 0 0)
(0.0919334 -3.35818e-06 0 -0.0919334 0 0)
(0.091897 -1.05347e-06 0 -0.091897 0 0)
(0.0918172 2.13137e-06 0 -0.0918172 0 0)
(0.0917579 9.62664e-07 0 -0.0917579 0 0)
(0.0916983 -2.13658e-07 0 -0.0916983 0 0)
(0.0916414 -9.61999e-08 0 -0.0916414 0 0)
(0.0915866 -2.28e-08 0 -0.0915866 0 0)
(0.0915333 4.3429e-10 0 -0.0915333 0 0)
(0.0914816 6.5061e-09 0 -0.0914816 0 0)
(0.0914317 4.60721e-09 0 -0.0914317 0 0)
(0.0913835 3.08288e-09 0 -0.0913835 0 0)
(0.0913372 2.54394e-09 0 -0.0913372 0 0)
(0.0912927 2.34332e-09 0 -0.0912927 0 0)
(0.09125 2.20804e-09 0 -0.09125 0 0)
(0.0912093 2.06707e-09 0 -0.0912093 0 0)
(0.0911704 1.92396e-09 0 -0.0911704 0 0)
(0.0911334 1.78869e-09 0 -0.0911334 0 0)
(0.0910984 1.66438e-09 0 -0.0910984 0 0)
(0.0910652 1.5504e-09 0 -0.0910652 0 0)
(0.0910338 1.44544e-09 0 -0.0910338 0 0)
(0.0910044 1.3487e-09 0 -0.0910044 0 0)
(0.0909768 1.25954e-09 0 -0.0909768 0 0)
(0.090951 1.17717e-09 0 -0.090951 0 0)
(0.0909271 1.10097e-09 0 -0.0909271 0 0)
(0.0909049 1.03053e-09 0 -0.0909049 0 0)
(0.0908846 9.65298e-10 0 -0.0908846 0 0)
(0.0908659 9.04916e-10 0 -0.0908659 0 0)
(0.090849 8.48948e-10 0 -0.090849 0 0)
(0.0908338 7.96973e-10 0 -0.0908338 0 0)
(0.0908203 7.48746e-10 0 -0.0908203 0 0)
(0.0908084 7.03987e-10 0 -0.0908084 0 0)
(0.0907981 6.62335e-10 0 -0.0907981 0 0)
(0.0907894 6.23541e-10 0 -0.0907894 0 0)
(0.0907823 5.87555e-10 0 -0.0907823 0 0)
(0.0907767 5.53982e-10 0 -0.0907767 0 0)
(0.0907726 5.22613e-10 0 -0.0907726 0 0)
(0.0907699 4.93446e-10 0 -0.0907699 0 0)
(0.0907687 4.66254e-10 0 -0.0907687 0 0)
(0.0907689 4.40815e-10 0 -0.0907689 0 0)
(0.0907705 4.17018e-10 0 -0.0907705 0 0)
(0.0907734 3.94841e-10 0 -0.0907734 0 0)
(0.0907777 3.74083e-10 0 -0.0907777 0 0)
(0.0907832 3.54711e-10 0 -0.0907832 0 0)
(0.09079 3.36546e-10 0 -0.09079 0 0)
(0.090798 3.1929e-10 0 -0.090798 0 0)
(0.0908072 3.03523e-10 0 -0.0908072 0 0)
(0.0908175 2.88729e-10 0 -0.0908175 0 0)
(0.090829 2.74507e-10 0 -0.090829 0 0)
(0.0908416 2.61474e-10 0 -0.0908416 0 0)
(0.0908552 2.48982e-10 0 -0.0908552 0 0)
(0.0908698 2.3747e-10 0 -0.0908698 0 0)
(0.0908855 2.26848e-10 0 -0.0908855 0 0)
(0.0909021 2.1631e-10 0 -0.0909021 0 0)
(0.0909196 2.06851e-10 0 -0.0909196 0 0)
(0.0909381 1.98191e-10 0 -0.0909381 0 0)
(0.0909574 1.89304e-10 0 -0.0909574 0 0)
(0.0909775 1.8127e-10 0 -0.0909775 0 0)
(0.0909984 1.74359e-10 0 -0.0909984 0 0)
(0.09102 1.67118e-10 0 -0.09102 0 0)
(0.0910424 1.60373e-10 0 -0.0910424 0 0)
(0.0910654 1.54462e-10 0 -0.0910654 0 0)
(0.0910891 1.48501e-10 0 -0.0910891 0 0)
(0.0911134 1.43152e-10 0 -0.0911134 0 0)
(0.0911383 1.38047e-10 0 -0.0911383 0 0)
(0.0911637 1.33322e-10 0 -0.0911637 0 0)
(0.0911895 1.28989e-10 0 -0.0911895 0 0)
(0.0912159 1.24473e-10 0 -0.0912159 0 0)
(0.0912426 1.20753e-10 0 -0.0912426 0 0)
(0.0912696 1.17316e-10 0 -0.0912696 0 0)
(0.091297 1.13787e-10 0 -0.091297 0 0)
(0.0913247 1.10518e-10 0 -0.0913247 0 0)
(0.0913525 1.07653e-10 0 -0.0913525 0 0)
(0.0913806 1.05187e-10 0 -0.0913806 0 0)
(0.0914087 1.02451e-10 0 -0.0914087 0 0)
(0.091437 1.00033e-10 0 -0.091437 0 0)
(0.0914652 9.82559e-11 0 -0.0914652 0 0)
(0.0914934 9.62128e-11 0 -0.0914934 0 0)
(0.0915216 9.40712e-11 0 -0.0915216 0 0)
(0.0915495 9.27028e-11 0 -0.0915495 0 0)
(0.0915773 9.13573e-11 0 -0.0915773 0 0)
(0.0916048 8.99775e-11 0 -0.0916048 0 0)
(0.0916319 8.89928e-11 0 -0.0916319 0 0)
(0.0916587 8.58874e-11 0 -0.0916587 0 0)
(0.091685 7.45878e-11 0 -0.091685 0 0)
(0.0917107 5.40811e-11 0 -0.0917107 0 0)
(0.0917359 6.62373e-11 0 -0.0917359 0 0)
(0.0917603 2.30316e-10 0 -0.0917603 0 0)
(0.091784 1.03242e-09 0 -0.091784 0 0)
(0.0918068 2.08851e-09 0 -0.0918068 0 0)
(0.0918287 -3.25615e-09 0 -0.0918287 0 0)
(0.0918495 -1.23382e-08 0 -0.0918495 0 0)
(0.0918691 -6.48218e-08 0 -0.0918691 0 0)
(0.091888 -2.08159e-07 0 -0.091888 0 0)
(0.0919064 9.3343e-07 0 -0.0919064 0 0)
(0.0919214 8.29186e-07 0 -0.0919214 0 0)
(0.0919594 -1.60081e-06 0 -0.0919594 0 0)
(0.0919327 -9.68409e-07 0 -0.0919327 0 0)
(0.0918853 6.35139e-07 0 -0.0918853 0 0)
(0.0918269 3.15956e-07 0 -0.0918269 0 0)
(0.0917623 5.8248e-08 0 -0.0917623 0 0)
(0.0916938 7.31976e-09 0 -0.0916938 0 0)
(0.0916233 1.56277e-08 0 -0.0916233 0 0)
(0.0915521 1.49699e-08 0 -0.0915521 0 0)
(0.0914813 6.81828e-09 0 -0.0914813 0 0)
(0.0914116 -5.62367e-10 0 -0.0914116 0 0)
(0.0913437 -5.72762e-09 0 -0.0913437 0 0)
(0.0912784 -9.66206e-09 0 -0.0912784 0 0)
(0.0912166 -1.29048e-08 0 -0.0912166 0 0)
(0.0911593 -1.53928e-08 0 -0.0911593 0 0)
(0.0911079 -1.67799e-08 0 -0.0911079 0 0)
(0.0910641 -1.6524e-08 0 -0.0910641 0 0)
(0.09103 -1.38782e-08 0 -0.09103 0 0)
(0.091008 -7.87204e-09 0 -0.091008 0 0)
(0.091001 2.99523e-09 0 -0.091001 0 0)
(0.091012 2.1668e-08 0 -0.091012 0 0)
(0.0910442 5.21491e-08 0 -0.0910442 0 0)
(0.0911003 9.12825e-08 0 -0.0911003 0 0)
(0.0911825 1.15385e-07 0 -0.0911825 0 0)
(0.091291 1.22242e-07 0 -0.091291 0 0)
(0.0914237 3.28448e-07 0 -0.0914237 0 0)
(0.0915745 1.20766e-06 0 -0.0915745 0 0)
(0.0917324 1.89424e-06 0 -0.0917324 0 0)
(0.0918743 -3.43249e-06 0 -0.0918743 0 0)
(0.0919446 -4.85104e-06 0 -0.0919446 0 0)
(0.091808 3.10857e-06 0 -0.091808 0 0)
(0.091751 2.9568e-06 0 -0.091751 0 0)
(0.091682 -7.81288e-07 0 -0.091682 0 0)
(0.0916102 -2.05112e-07 0 -0.0916102 0 0)
(0.0915347 -3.52197e-08 0 -0.0915347 0 0)
(0.0914531 -9.90889e-09 0 -0.0914531 0 0)
(0.0913656 7.52369e-09 0 -0.0913656 0 0)
(0.0912722 3.0206e-09 0 -0.0912722 0 0)
(0.0911727 3.43669e-10 0 -0.0911727 0 0)
(0.0910672 -8.43499e-11 0 -0.0910672 0 0)
(0.0909554 -1.02851e-10 0 -0.0909554 0 0)
(0.0908373 -3.3037e-11 0 -0.0908373 0 0)
(0.0907128 -2.56038e-12 0 -0.0907128 0 0)
(0.0905817 -3.91916e-13 0 -0.0905817 0 0)
(0.090444 -4.0458e-12 0 -0.090444 0 0)
(0.0902994 -8.01561e-12 0 -0.0902994 0 0)
(0.090148 -1.17531e-11 0 -0.090148 0 0)
(0.0899895 -1.55983e-11 0 -0.0899895 0 0)
(0.0898239 -1.97443e-11 0 -0.0898239 0 0)
(0.0896511 -2.41884e-11 0 -0.0896511 0 0)
(0.0894709 -2.88622e-11 0 -0.0894709 0 0)
(0.0892832 -3.37107e-11 0 -0.0892832 0 0)
(0.0890879 -3.86957e-11 0 -0.0890879 0 0)
(0.0888849 -4.3781e-11 0 -0.0888849 0 0)
(0.0886741 -4.89422e-11 0 -0.0886741 0 0)
(0.0884552 -5.41593e-11 0 -0.0884552 0 0)
(0.0882283 -5.94165e-11 0 -0.0882283 0 0)
(0.0879932 -6.46993e-11 0 -0.0879932 0 0)
(0.0877498 -7.00082e-11 0 -0.0877498 0 0)
(0.0874979 -7.53311e-11 0 -0.0874979 0 0)
(0.0872375 -8.06465e-11 0 -0.0872375 0 0)
(0.0869684 -8.59658e-11 0 -0.0869684 0 0)
(0.0866906 -9.12866e-11 0 -0.0866906 0 0)
(0.0864038 -9.65972e-11 0 -0.0864038 0 0)
(0.086108 -1.01901e-10 0 -0.086108 0 0)
(0.0858031 -1.07189e-10 0 -0.0858031 0 0)
(0.0854889 -1.12455e-10 0 -0.0854889 0 0)
(0.0851654 -1.17704e-10 0 -0.0851654 0 0)
(0.0848324 -1.22928e-10 0 -0.0848324 0 0)
(0.0844899 -1.28121e-10 0 -0.0844899 0 0)
(0.0841377 -1.33277e-10 0 -0.0841377 0 0)
(0.0837757 -1.38391e-10 0 -0.0837757 0 0)
(0.0834039 -1.43456e-10 0 -0.0834039 0 0)
(0.0830221 -1.48468e-10 0 -0.0830221 0 0)
(0.0826302 -1.53419e-10 0 -0.0826302 0 0)
(0.0822282 -1.58296e-10 0 -0.0822282 0 0)
(0.081816 -1.63101e-10 0 -0.081816 0 0)
(0.0813935 -1.67818e-10 0 -0.0813935 0 0)
(0.0809606 -1.72428e-10 0 -0.0809606 0 0)
(0.0805172 -1.76934e-10 0 -0.0805172 0 0)
(0.0800633 -1.81322e-10 0 -0.0800633 0 0)
(0.0795989 -1.85577e-10 0 -0.0795989 0 0)
(0.0791237 -1.89689e-10 0 -0.0791237 0 0)
(0.0786379 -1.93653e-10 0 -0.0786379 0 0)
(0.0781413 -1.97441e-10 0 -0.0781413 0 0)
(0.0776339 -2.0104e-10 0 -0.0776339 0 0)
(0.0771156 -2.04457e-10 0 -0.0771156 0 0)
(0.0765865 -2.07656e-10 0 -0.0765865 0 0)
(0.0760465 -2.1063e-10 0 -0.0760465 0 0)
(0.0754956 -2.13365e-10 0 -0.0754956 0 0)
(0.0749338 -2.15839e-10 0 -0.0749338 0 0)
(0.074361 -2.18049e-10 0 -0.074361 0 0)
(0.0737773 -2.19973e-10 0 -0.0737773 0 0)
(0.0731827 -2.21596e-10 0 -0.0731827 0 0)
(0.0725772 -2.22897e-10 0 -0.0725772 0 0)
(0.0719609 -2.23859e-10 0 -0.0719609 0 0)
(0.0713337 -2.2448e-10 0 -0.0713337 0 0)
(0.0706958 -2.24732e-10 0 -0.0706958 0 0)
(0.0700471 -2.24606e-10 0 -0.0700471 0 0)
(0.0693878 -2.2409e-10 0 -0.0693878 0 0)
(0.0687179 -2.23158e-10 0 -0.0687179 0 0)
(0.0680374 -2.21797e-10 0 -0.0680374 0 0)
(0.0673466 -2.20005e-10 0 -0.0673466 0 0)
(0.0666455 -2.1777e-10 0 -0.0666455 0 0)
(0.0659342 -2.1507e-10 0 -0.0659342 0 0)
(0.0652129 -2.11889e-10 0 -0.0652129 0 0)
(0.0644816 -2.08223e-10 0 -0.0644816 0 0)
(0.0637406 -2.04071e-10 0 -0.0637406 0 0)
(0.06299 -1.99461e-10 0 -0.06299 0 0)
(0.0622299 -1.94365e-10 0 -0.0622299 0 0)
(0.0614606 -1.88706e-10 0 -0.0614606 0 0)
(0.0606823 -1.82468e-10 0 -0.0606823 0 0)
(0.0598951 -1.75684e-10 0 -0.0598951 0 0)
(0.0590993 -1.68406e-10 0 -0.0590993 0 0)
(0.0582952 -1.60655e-10 0 -0.0582952 0 0)
(0.0574829 -1.52396e-10 0 -0.0574829 0 0)
(0.0566627 -1.43614e-10 0 -0.0566627 0 0)
(0.055835 -1.34329e-10 0 -0.055835 0 0)
(0.0549999 -1.24548e-10 0 -0.0549999 0 0)
(0.0541578 -1.14275e-10 0 -0.0541578 0 0)
(0.053309 -1.03534e-10 0 -0.053309 0 0)
(0.0524539 -9.23384e-11 0 -0.0524539 0 0)
(0.0515927 -8.06979e-11 0 -0.0515927 0 0)
(0.0507258 -6.86395e-11 0 -0.0507258 0 0)
(0.0498536 -5.61894e-11 0 -0.0498536 0 0)
(0.0489765 -4.33641e-11 0 -0.0489765 0 0)
(0.0480948 -3.01896e-11 0 -0.0480948 0 0)
(0.0472089 -1.67009e-11 0 -0.0472089 0 0)
(0.0463193 -2.92937e-12 0 -0.0463193 0 0)
(0.0454263 1.10928e-11 0 -0.0454263 0 0)
(0.0445305 2.53258e-11 0 -0.0445305 0 0)
(0.0436322 3.97263e-11 0 -0.0436322 0 0)
(0.0427319 5.42591e-11 0 -0.0427319 0 0)
(0.04183 6.88845e-11 0 -0.04183 0 0)
(0.0409271 8.35563e-11 0 -0.0409271 0 0)
(0.0400236 9.82267e-11 0 -0.0400236 0 0)
(0.03912 1.12844e-10 0 -0.03912 0 0)
(0.0382168 1.27364e-10 0 -0.0382168 0 0)
(0.0373146 1.41738e-10 0 -0.0373146 0 0)
(0.0364137 1.55913e-10 0 -0.0364137 0 0)
(0.0355148 1.69847e-10 0 -0.0355148 0 0)
(0.0346184 1.83481e-10 0 -0.0346184 0 0)
(0.0337249 1.96762e-10 0 -0.0337249 0 0)
(0.032835 2.09645e-10 0 -0.032835 0 0)
(0.0319491 2.22076e-10 0 -0.0319491 0 0)
(0.0310678 2.34013e-10 0 -0.0310678 0 0)
(0.0301917 2.45402e-10 0 -0.0301917 0 0)
(0.0293212 2.56193e-10 0 -0.0293212 0 0)
(0.0284569 2.66347e-10 0 -0.0284569 0 0)
(0.0275994 2.75817e-10 0 -0.0275994 0 0)
(0.0267491 2.84565e-10 0 -0.0267491 0 0)
(0.0259066 2.92553e-10 0 -0.0259066 0 0)
(0.0250724 2.99748e-10 0 -0.0250724 0 0)
(0.0242471 3.06109e-10 0 -0.0242471 0 0)
(0.0234311 3.11616e-10 0 -0.0234311 0 0)
(0.022625 3.16253e-10 0 -0.022625 0 0)
(0.0218292 3.19994e-10 0 -0.0218292 0 0)
(0.0210443 3.22818e-10 0 -0.0210443 0 0)
(0.0202706 3.24718e-10 0 -0.0202706 0 0)
(0.0195087 3.25692e-10 0 -0.0195087 0 0)
(0.018759 3.25737e-10 0 -0.018759 0 0)
(0.0180219 3.24856e-10 0 -0.0180219 0 0)
(0.0172979 3.2306e-10 0 -0.0172979 0 0)
(0.0165874 3.2036e-10 0 -0.0165874 0 0)
(0.0158906 3.16777e-10 0 -0.0158906 0 0)
(0.0152081 3.12336e-10 0 -0.0152081 0 0)
(0.0145401 3.07063e-10 0 -0.0145401 0 0)
(0.013887 3.00993e-10 0 -0.013887 0 0)
(0.013249 2.94165e-10 0 -0.013249 0 0)
(0.0126265 2.86619e-10 0 -0.0126265 0 0)
(0.0120196 2.78403e-10 0 -0.0120196 0 0)
(0.0114287 2.69566e-10 0 -0.0114287 0 0)
(0.0108539 2.60161e-10 0 -0.0108539 0 0)
(0.0102955 2.50246e-10 0 -0.0102955 0 0)
(0.0097535 2.3988e-10 0 -0.0097535 0 0)
(0.00922811 2.29122e-10 0 -0.00922811 0 0)
(0.00871943 2.18036e-10 0 -0.00871943 0 0)
(0.00822753 2.06686e-10 0 -0.00822753 0 0)
(0.00775246 1.95137e-10 0 -0.00775246 0 0)
(0.00729423 1.83452e-10 0 -0.00729423 0 0)
(0.00685285 1.71697e-10 0 -0.00685285 0 0)
(0.00642827 1.59936e-10 0 -0.00642827 0 0)
(0.00602042 1.4823e-10 0 -0.00602042 0 0)
(0.00562923 1.36641e-10 0 -0.00562923 0 0)
(0.00525456 1.25226e-10 0 -0.00525456 0 0)
(0.00489628 1.14038e-10 0 -0.00489628 0 0)
(0.00455421 1.03133e-10 0 -0.00455421 0 0)
(0.00422815 9.25583e-11 0 -0.00422815 0 0)
(0.00391787 8.23576e-11 0 -0.00391787 0 0)
(0.00362313 7.25714e-11 0 -0.00362313 0 0)
(0.00334366 6.32354e-11 0 -0.00334366 0 0)
(0.00307914 5.43802e-11 0 -0.00307914 0 0)
(0.00282928 4.60318e-11 0 -0.00282928 0 0)
(0.00259371 3.82109e-11 0 -0.00259371 0 0)
(0.00237209 3.09342e-11 0 -0.00237209 0 0)
(0.00216403 2.42087e-11 0 -0.00216403 0 0)
(0.00196913 1.80434e-11 0 -0.00196913 0 0)
(0.00178698 1.24379e-11 0 -0.00178698 0 0)
(0.00161716 7.38786e-12 0 -0.00161716 0 0)
(0.00145922 2.88474e-12 0 -0.00145922 0 0)
(0.0013127 -1.0846e-12 0 -0.0013127 0 0)
(0.00117715 -4.53697e-12 0 -0.00117715 0 0)
(0.0010521 -7.4927e-12 0 -0.0010521 0 0)
(0.000937054 -9.97663e-12 0 -0.000937054 0 0)
(0.000831545 -1.20141e-11 0 -0.000831545 0 0)
(0.000735084 -1.3634e-11 0 -0.000735084 0 0)
(0.000647184 -1.4867e-11 0 -0.000647184 0 0)
(0.00056736 -1.57448e-11 0 -0.00056736 0 0)
(0.00049513 -1.63008e-11 0 -0.00049513 0 0)
(0.000430014 -1.65673e-11 0 -0.000430014 0 0)
(0.000371542 -1.6579e-11 0 -0.000371542 0 0)
(0.000319249 -1.63671e-11 0 -0.000319249 0 0)
(0.000272683 -1.59634e-11 0 -0.000272683 0 0)
(0.000231402 -1.53985e-11 0 -0.000231402 0 0)
(0.000194977 -1.47011e-11 0 -0.000194977 0 0)
(0.000162997 -1.38976e-11 0 -0.000162997 0 0)
(0.000135065 -1.30127e-11 0 -0.000135065 0 0)
(0.000110805 -1.20684e-11 0 -0.000110805 0 0)
(8.98604e-05 -1.10852e-11 0 -8.98604e-05 0 0)
(7.18945e-05 -1.00823e-11 0 -7.18945e-05 0 0)
(5.65955e-05 -9.0698e-12 0 -5.65955e-05 0 0)
(4.36748e-05 -8.03265e-12 0 -4.36748e-05 0 0)
(3.28695e-05 -6.95407e-12 0 -3.28695e-05 0 0)
(2.39429e-05 -5.98944e-12 0 -2.39429e-05 0 0)
(1.6686e-05 -5.5811e-12 0 -1.6686e-05 0 0)
(1.09175e-05 -5.3702e-12 0 -1.09175e-05 0 0)
(6.4855e-06 -1.88826e-12 0 -6.4855e-06 0 0)
(3.26713e-06 7.63745e-12 0 -3.26713e-06 0 0)
(1.17005e-06 2.69714e-12 0 -1.17005e-06 0 0)
(1.30124e-07 -3.77777e-12 0 -1.30124e-07 0 0)
)
;

boundaryField
{
    topWall
    {
        type            symmetry;
    }
    bottomWall
    {
        type            calculated;
        value           uniform (0 0 0 0 0 0);
    }
    inlet
    {
        type            cyclic;
    }
    outlet
    {
        type            cyclic;
    }
    frontAndBack
    {
        type            empty;
    }
}


// ************************************************************************* //
