/*--------------------------------*- C++ -*----------------------------------*\
| =========                 |                                                 |
| \\      /  F ield         | OpenFOAM: The Open Source CFD Toolbox           |
|  \\    /   O peration     | Version:  2212                                  |
|   \\  /    A nd           | Website:  www.openfoam.com                      |
|    \\/     M anipulation  |                                                 |
\*---------------------------------------------------------------------------*/
FoamFile
{
    version     2.0;
    format      ascii;
    arch        "LSB;label=32;scalar=64";
    class       volScalarField;
    location    "43892";
    object      i3;
}
// * * * * * * * * * * * * * * * * * * * * * * * * * * * * * * * * * * * * * //

dimensions      [0 0 0 0 0 0 0];

internalField   nonuniform List<scalar> 
400
(
-1.24433e-20
-1.27531e-18
-1.08488e-17
-6.63709e-16
-1.1375e-14
-1.23711e-13
-1.01703e-12
-6.68856e-12
-3.59004e-11
-1.59029e-10
-5.85971e-10
-1.80298e-09
-4.6233e-09
-9.76843e-09
-1.65024e-08
-2.05031e-08
-1.27852e-08
1.73539e-08
7.4409e-08
1.48241e-07
2.13286e-07
2.39385e-07
2.08233e-07
1.23766e-07
9.74938e-09
-1.02075e-07
-1.86552e-07
-2.42557e-07
-3.0614e-07
-3.80855e-07
-4.74882e-08
2.2718e-06
7.4848e-07
-5.40331e-06
-2.95994e-06
2.93549e-06
2.22313e-06
2.12196e-07
-1.80829e-07
-6.83126e-08
3.5919e-09
8.32828e-09
1.55694e-09
-2.71379e-10
3.99469e-10
1.33304e-09
3.05361e-09
5.61355e-09
2.74899e-09
-3.47479e-09
-8.58063e-10
4.96308e-09
4.9755e-09
3.18397e-09
2.45915e-09
2.38691e-09
2.39529e-09
2.34547e-09
2.26305e-09
2.17047e-09
2.07111e-09
1.96469e-09
1.8537e-09
1.74296e-09
1.63403e-09
1.52001e-09
1.42755e-09
1.57762e-09
2.45851e-09
3.85201e-09
2.53952e-09
-4.21621e-09
8.30732e-09
1.20369e-07
3.52209e-07
-6.43625e-08
-8.16158e-07
-2.56004e-07
5.18037e-07
2.34018e-07
-5.19456e-08
-2.33918e-08
-5.5445e-09
1.05975e-10
1.58301e-09
1.12119e-09
7.50388e-10
6.19292e-10
5.70505e-10
5.37609e-10
5.03321e-10
4.68501e-10
4.35586e-10
4.05332e-10
3.77588e-10
3.52037e-10
3.28483e-10
3.06773e-10
2.86712e-10
2.68153e-10
2.50996e-10
2.35105e-10
2.20395e-10
2.06759e-10
1.94095e-10
1.82344e-10
1.71437e-10
1.61287e-10
1.51833e-10
1.43063e-10
1.34881e-10
1.27236e-10
1.20128e-10
1.135e-10
1.073e-10
1.015e-10
9.60948e-11
9.10349e-11
8.63134e-11
8.18858e-11
7.76796e-11
7.38358e-11
7.02288e-11
6.67613e-11
6.35843e-11
6.05384e-11
5.77304e-11
5.51397e-11
5.25693e-11
5.02622e-11
4.81491e-11
4.598e-11
4.40192e-11
4.23309e-11
4.05631e-11
3.89153e-11
3.74704e-11
3.60134e-11
3.47049e-11
3.3455e-11
3.22976e-11
3.12348e-11
3.01279e-11
2.92129e-11
2.83666e-11
2.74971e-11
2.66895e-11
2.59792e-11
2.53643e-11
2.46817e-11
2.40749e-11
2.36219e-11
2.31008e-11
2.25525e-11
2.21883e-11
2.18251e-11
2.14485e-11
2.11622e-11
2.03534e-11
1.75444e-11
1.24886e-11
1.53643e-11
5.51616e-11
2.50034e-10
5.06607e-10
-7.9256e-10
-2.99989e-09
-1.57547e-08
-5.05867e-08
2.26825e-07
2.01481e-07
-3.88952e-07
-2.35359e-07
1.54449e-07
7.68766e-08
1.4182e-08
1.78368e-09
3.81123e-09
3.65354e-09
1.6653e-09
-1.37515e-10
-1.40108e-09
-2.36508e-09
-3.16077e-09
-3.77217e-09
-4.11387e-09
-4.05225e-09
-3.40328e-09
-1.92823e-09
7.41352e-10
5.32704e-09
1.28073e-08
2.2399e-08
2.82865e-08
2.99309e-08
8.0279e-08
2.94661e-07
4.61414e-07
-8.34744e-07
-1.17873e-06
7.55562e-07
7.18797e-07
-1.89971e-07
-4.98885e-08
-8.57457e-09
-2.41831e-09
1.82375e-09
7.28822e-10
7.79926e-11
-2.55042e-11
-2.932e-11
-1.16554e-11
-3.62003e-12
-2.54357e-12
-2.9527e-12
-3.50669e-12
-4.06996e-12
-4.72e-12
-5.49891e-12
-6.40006e-12
-7.39882e-12
-8.47558e-12
-9.61646e-12
-1.08062e-11
-1.20348e-11
-1.32937e-11
-1.45753e-11
-1.5874e-11
-1.7188e-11
-1.8512e-11
-1.98395e-11
-2.11729e-11
-2.25097e-11
-2.38478e-11
-2.51884e-11
-2.65273e-11
-2.78624e-11
-2.91968e-11
-3.05288e-11
-3.18552e-11
-3.31755e-11
-3.44885e-11
-3.57927e-11
-3.70876e-11
-3.83707e-11
-3.96388e-11
-4.08938e-11
-4.21303e-11
-4.33442e-11
-4.45372e-11
-4.57049e-11
-4.68441e-11
-4.79519e-11
-4.90281e-11
-5.00651e-11
-5.10582e-11
-5.20104e-11
-5.29136e-11
-5.37642e-11
-5.45589e-11
-5.5293e-11
-5.59645e-11
-5.65666e-11
-5.70976e-11
-5.75505e-11
-5.79197e-11
-5.82052e-11
-5.83996e-11
-5.84995e-11
-5.85018e-11
-5.83984e-11
-5.81854e-11
-5.7863e-11
-5.74261e-11
-5.68661e-11
-5.618e-11
-5.5365e-11
-5.44204e-11
-5.3352e-11
-5.21508e-11
-5.0796e-11
-4.92809e-11
-4.76123e-11
-4.58035e-11
-4.38577e-11
-4.17642e-11
-3.95181e-11
-3.71218e-11
-3.4574e-11
-3.18751e-11
-2.903e-11
-2.60404e-11
-2.29056e-11
-1.96309e-11
-1.62222e-11
-1.26817e-11
-9.01415e-12
-5.2259e-12
-1.32464e-12
2.68196e-12
6.78634e-12
1.09776e-11
1.52468e-11
1.95862e-11
2.39844e-11
2.84281e-11
3.29039e-11
3.74008e-11
4.19045e-11
4.64017e-11
5.08813e-11
5.53248e-11
5.97164e-11
6.40431e-11
6.82884e-11
7.24385e-11
7.64761e-11
8.0384e-11
8.4148e-11
8.77517e-11
9.11804e-11
9.44204e-11
9.74552e-11
1.00269e-10
1.0285e-10
1.05191e-10
1.07275e-10
1.09092e-10
1.10631e-10
1.11887e-10
1.12851e-10
1.13517e-10
1.13882e-10
1.1394e-10
1.13692e-10
1.13137e-10
1.12277e-10
1.11114e-10
1.09655e-10
1.07905e-10
1.05873e-10
1.03567e-10
1.01e-10
9.81846e-11
9.51358e-11
9.18683e-11
8.83997e-11
8.4749e-11
8.09351e-11
7.69785e-11
7.29008e-11
6.8724e-11
6.44707e-11
6.01639e-11
5.58261e-11
5.14826e-11
4.71546e-11
4.28661e-11
3.86391e-11
3.44954e-11
3.04559e-11
2.65402e-11
2.27669e-11
1.91539e-11
1.57157e-11
1.24688e-11
9.42347e-12
6.59108e-12
3.98042e-12
1.59819e-12
-5.51135e-13
-2.46486e-12
-4.14286e-12
-5.58616e-12
-6.79901e-12
-7.78673e-12
-8.55694e-12
-9.11899e-12
-9.48391e-12
-9.66482e-12
-9.67495e-12
-9.53029e-12
-9.24684e-12
-8.84194e-12
-8.33346e-12
-7.73974e-12
-7.07941e-12
-6.37119e-12
-5.63408e-12
-4.88717e-12
-4.14591e-12
-3.41553e-12
-2.70455e-12
-2.08574e-12
-1.69286e-12
-1.36641e-12
-3.81491e-13
1.1205e-12
2.40483e-13
-1.13209e-13
)
;

boundaryField
{
    topWall
    {
        type            symmetry;
    }
    bottomWall
    {
        type            calculated;
        value           uniform -1.21877e-20;
    }
    inlet
    {
        type            cyclic;
    }
    outlet
    {
        type            cyclic;
    }
    frontAndBack
    {
        type            empty;
    }
}


// ************************************************************************* //
