/*--------------------------------*- C++ -*----------------------------------*\
| =========                 |                                                 |
| \\      /  F ield         | OpenFOAM: The Open Source CFD Toolbox           |
|  \\    /   O peration     | Version:  2212                                  |
|   \\  /    A nd           | Website:  www.openfoam.com                      |
|    \\/     M anipulation  |                                                 |
\*---------------------------------------------------------------------------*/
FoamFile
{
    version     2.0;
    format      ascii;
    arch        "LSB;label=32;scalar=64";
    class       volScalarField;
    location    "43892";
    object      i4;
}
// * * * * * * * * * * * * * * * * * * * * * * * * * * * * * * * * * * * * * //

dimensions      [0 0 0 0 0 0 0];

internalField   nonuniform List<scalar> 
400
(
4.14778e-21
4.25103e-19
3.61627e-18
2.21236e-16
3.79167e-15
4.1237e-14
3.39009e-13
2.22952e-12
1.19668e-11
5.30097e-11
1.95324e-10
6.00993e-10
1.5411e-09
3.25614e-09
5.5008e-09
6.83438e-09
4.26173e-09
-5.78465e-09
-2.4803e-08
-4.94136e-08
-7.10953e-08
-7.97949e-08
-6.94111e-08
-4.12554e-08
-3.24979e-09
3.40249e-08
6.21841e-08
8.08522e-08
1.02047e-07
1.26952e-07
1.58294e-08
-7.57265e-07
-2.49493e-07
1.8011e-06
9.86648e-07
-9.78498e-07
-7.41042e-07
-7.07321e-08
6.02764e-08
2.27709e-08
-1.1973e-09
-2.77609e-09
-5.18981e-10
9.04598e-11
-1.33156e-10
-4.44347e-10
-1.01787e-09
-1.87118e-09
-9.16331e-10
1.15826e-09
2.86021e-10
-1.65436e-09
-1.6585e-09
-1.06132e-09
-8.19715e-10
-7.95635e-10
-7.98431e-10
-7.81823e-10
-7.5435e-10
-7.23489e-10
-6.90369e-10
-6.54896e-10
-6.17899e-10
-5.80987e-10
-5.44676e-10
-5.06669e-10
-4.75851e-10
-5.25873e-10
-8.19504e-10
-1.284e-09
-8.46508e-10
1.4054e-09
-2.76911e-09
-4.01229e-08
-1.17403e-07
2.14542e-08
2.72053e-07
8.53348e-08
-1.72679e-07
-7.80061e-08
1.73152e-08
7.79728e-09
1.84817e-09
-3.53249e-11
-5.2767e-10
-3.7373e-10
-2.50129e-10
-2.06431e-10
-1.90168e-10
-1.79203e-10
-1.67774e-10
-1.56167e-10
-1.45195e-10
-1.35111e-10
-1.25863e-10
-1.17346e-10
-1.09494e-10
-1.02258e-10
-9.55707e-11
-8.93844e-11
-8.36653e-11
-7.83683e-11
-7.3465e-11
-6.89196e-11
-6.46984e-11
-6.07812e-11
-5.71457e-11
-5.37623e-11
-5.0611e-11
-4.76877e-11
-4.49604e-11
-4.24121e-11
-4.00426e-11
-3.78334e-11
-3.57668e-11
-3.38334e-11
-3.20316e-11
-3.0345e-11
-2.87711e-11
-2.72953e-11
-2.58932e-11
-2.46119e-11
-2.34096e-11
-2.22538e-11
-2.11948e-11
-2.01795e-11
-1.92435e-11
-1.83799e-11
-1.75231e-11
-1.67541e-11
-1.60497e-11
-1.53267e-11
-1.46731e-11
-1.41103e-11
-1.3521e-11
-1.29718e-11
-1.24901e-11
-1.20045e-11
-1.15683e-11
-1.11517e-11
-1.07659e-11
-1.04116e-11
-1.00426e-11
-9.73762e-12
-9.45553e-12
-9.16569e-12
-8.89652e-12
-8.65973e-12
-8.45477e-12
-8.22725e-12
-8.02497e-12
-7.87396e-12
-7.70028e-12
-7.51749e-12
-7.39609e-12
-7.27503e-12
-7.14949e-12
-7.05408e-12
-6.78447e-12
-5.84814e-12
-4.16287e-12
-5.12145e-12
-1.83872e-11
-8.33447e-11
-1.68869e-10
2.64187e-10
9.99965e-10
5.25155e-09
1.68622e-08
-7.56084e-08
-6.71605e-08
1.29651e-07
7.8453e-08
-5.1483e-08
-2.56255e-08
-4.72734e-09
-5.94561e-10
-1.27041e-09
-1.21785e-09
-5.55101e-10
4.58384e-11
4.67027e-10
7.8836e-10
1.05359e-09
1.25739e-09
1.37129e-09
1.35075e-09
1.13443e-09
6.42743e-10
-2.47117e-10
-1.77568e-09
-4.26909e-09
-7.46633e-09
-9.42882e-09
-9.97695e-09
-2.67597e-08
-9.82205e-08
-1.53805e-07
2.78248e-07
3.92909e-07
-2.51854e-07
-2.39599e-07
6.33237e-08
1.66295e-08
2.85819e-09
8.06102e-10
-6.07918e-10
-2.42941e-10
-2.59975e-11
8.5014e-12
9.77332e-12
3.88513e-12
1.20668e-12
8.47858e-13
9.84235e-13
1.1689e-12
1.35665e-12
1.57333e-12
1.83297e-12
2.13335e-12
2.46627e-12
2.82519e-12
3.20549e-12
3.60208e-12
4.01161e-12
4.43123e-12
4.85844e-12
5.29135e-12
5.72935e-12
6.17066e-12
6.61318e-12
7.05762e-12
7.50323e-12
7.94927e-12
8.39614e-12
8.84242e-12
9.28747e-12
9.73227e-12
1.01763e-11
1.06184e-11
1.10585e-11
1.14962e-11
1.19309e-11
1.23625e-11
1.27902e-11
1.32129e-11
1.36313e-11
1.40434e-11
1.44481e-11
1.48457e-11
1.5235e-11
1.56147e-11
1.5984e-11
1.63427e-11
1.66884e-11
1.70194e-11
1.73368e-11
1.76379e-11
1.79214e-11
1.81863e-11
1.8431e-11
1.86548e-11
1.88555e-11
1.90325e-11
1.91835e-11
1.93066e-11
1.94017e-11
1.94665e-11
1.94998e-11
1.95006e-11
1.94661e-11
1.93951e-11
1.92877e-11
1.9142e-11
1.89554e-11
1.87267e-11
1.8455e-11
1.81401e-11
1.7784e-11
1.73836e-11
1.6932e-11
1.6427e-11
1.58708e-11
1.52678e-11
1.46192e-11
1.39214e-11
1.31727e-11
1.23739e-11
1.15247e-11
1.0625e-11
9.67668e-12
8.68012e-12
7.63519e-12
6.54363e-12
5.4074e-12
4.22724e-12
3.00472e-12
1.74197e-12
4.41546e-13
-8.93986e-13
-2.26211e-12
-3.65919e-12
-5.08228e-12
-6.52873e-12
-7.99479e-12
-9.47602e-12
-1.0968e-11
-1.24669e-11
-1.39682e-11
-1.54672e-11
-1.69604e-11
-1.84416e-11
-1.99055e-11
-2.13477e-11
-2.27628e-11
-2.41462e-11
-2.5492e-11
-2.67947e-11
-2.80493e-11
-2.92506e-11
-3.03935e-11
-3.14735e-11
-3.24851e-11
-3.34228e-11
-3.42834e-11
-3.50635e-11
-3.57585e-11
-3.63639e-11
-3.6877e-11
-3.72956e-11
-3.76169e-11
-3.7839e-11
-3.79605e-11
-3.798e-11
-3.78973e-11
-3.77124e-11
-3.74255e-11
-3.70381e-11
-3.65517e-11
-3.59683e-11
-3.52909e-11
-3.45224e-11
-3.36666e-11
-3.27282e-11
-3.17119e-11
-3.06228e-11
-2.94666e-11
-2.82497e-11
-2.69784e-11
-2.56595e-11
-2.43003e-11
-2.2908e-11
-2.14902e-11
-2.00546e-11
-1.86087e-11
-1.71609e-11
-1.57182e-11
-1.42887e-11
-1.28797e-11
-1.14985e-11
-1.0152e-11
-8.84672e-12
-7.58897e-12
-6.38463e-12
-5.23858e-12
-4.15628e-12
-3.14116e-12
-2.19703e-12
-1.32681e-12
-5.32731e-13
1.83712e-13
8.21622e-13
1.38095e-12
1.86205e-12
2.26634e-12
2.59558e-12
2.85231e-12
3.03966e-12
3.1613e-12
3.22161e-12
3.22498e-12
3.17676e-12
3.08228e-12
2.94731e-12
2.77782e-12
2.57991e-12
2.3598e-12
2.12373e-12
1.87803e-12
1.62906e-12
1.38197e-12
1.13851e-12
9.01516e-13
6.95248e-13
5.64287e-13
4.5547e-13
1.27164e-13
-3.73499e-13
-8.01611e-14
3.77362e-14
)
;

boundaryField
{
    topWall
    {
        type            symmetry;
    }
    bottomWall
    {
        type            calculated;
        value           uniform 4.06258e-21;
    }
    inlet
    {
        type            cyclic;
    }
    outlet
    {
        type            cyclic;
    }
    frontAndBack
    {
        type            empty;
    }
}


// ************************************************************************* //
