/*--------------------------------*- C++ -*----------------------------------*\
| =========                 |                                                 |
| \\      /  F ield         | OpenFOAM: The Open Source CFD Toolbox           |
|  \\    /   O peration     | Version:  2212                                  |
|   \\  /    A nd           | Website:  www.openfoam.com                      |
|    \\/     M anipulation  |                                                 |
\*---------------------------------------------------------------------------*/
FoamFile
{
    version     2.0;
    format      ascii;
    arch        "LSB;label=32;scalar=64";
    class       volScalarField;
    location    "43892";
    object      i5;
}
// * * * * * * * * * * * * * * * * * * * * * * * * * * * * * * * * * * * * * //

dimensions      [0 0 0 0 0 0 0];

internalField   nonuniform List<scalar> 
400
(
-8.02021e-17
-1.08405e-13
-7.94635e-12
-1.56806e-10
-1.48735e-09
-8.95558e-09
-3.97012e-08
-1.41254e-07
-4.2557e-07
-1.12439e-06
-2.66763e-06
-5.77776e-06
-1.15584e-05
-2.15392e-05
-3.76279e-05
-6.19278e-05
-9.64135e-05
-0.000142516
-0.000200721
-0.00027032
-0.000349398
-0.00043509
-0.000524011
-0.000612749
-0.000698285
-0.000778257
-0.000851066
-0.00091584
-0.000972316
-0.00102069
-0.0010615
-0.00109538
-0.00112296
-0.00114713
-0.0011544
-0.0011544
-0.0011544
-0.0011544
-0.0011544
-0.0011544
-0.0011544
-0.0011544
-0.0011544
-0.0011544
-0.0011544
-0.0011544
-0.0011544
-0.0011544
-0.0011544
-0.0011544
-0.0011544
-0.0011544
-0.0011544
-0.0011544
-0.0011544
-0.0011544
-0.0011544
-0.0011544
-0.0011544
-0.0011544
-0.0011544
-0.0011544
-0.0011544
-0.0011544
-0.0011544
-0.0011544
-0.0011544
-0.0011544
-0.0011544
-0.0011544
-0.0011544
-0.0011544
-0.0011544
-0.0011544
-0.0011544
-0.0011544
-0.0011544
-0.00115358
-0.00115256
-0.0011518
-0.00115103
-0.0011503
-0.0011496
-0.00114891
-0.00114825
-0.00114761
-0.00114699
-0.00114639
-0.00114582
-0.00114527
-0.00114475
-0.00114425
-0.00114378
-0.00114333
-0.0011429
-0.0011425
-0.00114212
-0.00114177
-0.00114143
-0.00114113
-0.00114084
-0.00114058
-0.00114034
-0.00114012
-0.00113993
-0.00113976
-0.0011396
-0.00113947
-0.00113936
-0.00113927
-0.0011392
-0.00113914
-0.00113911
-0.00113909
-0.0011391
-0.00113912
-0.00113915
-0.00113921
-0.00113928
-0.00113937
-0.00113947
-0.00113959
-0.00113972
-0.00113987
-0.00114003
-0.0011402
-0.00114039
-0.00114059
-0.00114081
-0.00114103
-0.00114127
-0.00114152
-0.00114177
-0.00114204
-0.00114232
-0.00114261
-0.0011429
-0.00114321
-0.00114352
-0.00114384
-0.00114417
-0.0011445
-0.00114484
-0.00114518
-0.00114553
-0.00114588
-0.00114623
-0.00114659
-0.00114695
-0.00114731
-0.00114768
-0.00114804
-0.0011484
-0.00114876
-0.00114912
-0.00114948
-0.00114983
-0.00115018
-0.00115052
-0.00115086
-0.00115119
-0.00115151
-0.00115183
-0.00115213
-0.00115243
-0.00115271
-0.00115297
-0.00115323
-0.00115347
-0.0011537
-0.0011539
-0.00115439
-0.0011544
-0.0011544
-0.0011544
-0.0011544
-0.0011544
-0.0011544
-0.0011544
-0.0011544
-0.0011544
-0.0011544
-0.0011544
-0.0011544
-0.0011544
-0.0011544
-0.0011544
-0.0011544
-0.0011544
-0.0011544
-0.0011544
-0.0011544
-0.0011544
-0.0011544
-0.0011544
-0.0011544
-0.0011544
-0.0011544
-0.0011544
-0.0011542
-0.00115244
-0.00115171
-0.00115082
-0.0011499
-0.00114893
-0.00114788
-0.00114676
-0.00114556
-0.00114428
-0.00114293
-0.00114149
-0.00113997
-0.00113838
-0.00113669
-0.00113492
-0.00113307
-0.00113112
-0.00112909
-0.00112696
-0.00112474
-0.00112243
-0.00112002
-0.00111751
-0.0011149
-0.0011122
-0.00110939
-0.00110648
-0.00110346
-0.00110033
-0.0010971
-0.00109376
-0.0010903
-0.00108674
-0.00108306
-0.00107926
-0.00107535
-0.00107131
-0.00106716
-0.00106289
-0.00105849
-0.00105398
-0.00104933
-0.00104456
-0.00103966
-0.00103464
-0.00102948
-0.00102419
-0.00101878
-0.00101322
-0.00100754
-0.00100172
-0.000995762
-0.000989671
-0.000983442
-0.000977076
-0.000970573
-0.000963931
-0.00095715
-0.00095023
-0.000943171
-0.000935973
-0.000928636
-0.000921159
-0.000913544
-0.00090579
-0.000897897
-0.000889867
-0.0008817
-0.000873397
-0.000864958
-0.000856385
-0.000847679
-0.000838841
-0.000829873
-0.000820776
-0.000811551
-0.000802201
-0.000792728
-0.000783134
-0.000773421
-0.000763592
-0.000753648
-0.000743594
-0.000733432
-0.000723165
-0.000712796
-0.000702329
-0.000691768
-0.000681115
-0.000670376
-0.000659554
-0.000648653
-0.000637679
-0.000626635
-0.000615526
-0.000604357
-0.000593133
-0.00058186
-0.000570542
-0.000559186
-0.000547797
-0.000536381
-0.000524943
-0.00051349
-0.000502028
-0.000490563
-0.000479101
-0.00046765
-0.000456215
-0.000444803
-0.000433422
-0.000422077
-0.000410775
-0.000399524
-0.000388331
-0.000377201
-0.000366143
-0.000355164
-0.000344269
-0.000333466
-0.000322763
-0.000312164
-0.000301679
-0.000291312
-0.000281071
-0.000270962
-0.000260991
-0.000251164
-0.000241489
-0.000231969
-0.000222612
-0.000213422
-0.000204405
-0.000195566
-0.000186909
-0.00017844
-0.000170162
-0.000162079
-0.000154196
-0.000146515
-0.00013904
-0.000131774
-0.000124718
-0.000117876
-0.000111248
-0.000104837
-9.86438e-05
-9.26683e-05
-8.69114e-05
-8.13729e-05
-7.60525e-05
-7.09495e-05
-6.60627e-05
-6.13907e-05
-5.69316e-05
-5.26831e-05
-4.86428e-05
-4.48077e-05
-4.11746e-05
-3.77398e-05
-3.44996e-05
-3.14497e-05
-2.85856e-05
-2.59025e-05
-2.33954e-05
-2.10591e-05
-1.88881e-05
-1.68765e-05
-1.50186e-05
-1.33082e-05
-1.17392e-05
-1.03051e-05
-8.99951e-06
-7.81595e-06
-6.74779e-06
-5.78843e-06
-4.93123e-06
-4.16959e-06
-3.49693e-06
-2.90677e-06
-2.39269e-06
-1.94841e-06
-1.56776e-06
-1.24478e-06
-9.73651e-07
-7.48794e-07
-5.64851e-07
-4.1672e-07
-2.99571e-07
-2.08869e-07
-1.40388e-07
-9.02291e-08
-5.48383e-08
-3.10181e-08
-1.59417e-08
-7.16373e-09
-2.63044e-09
-6.88117e-10
-9.00874e-11
-1.12589e-12
)
;

boundaryField
{
    topWall
    {
        type            symmetry;
    }
    bottomWall
    {
        type            calculated;
        value           uniform -8.02636e-17;
    }
    inlet
    {
        type            cyclic;
    }
    outlet
    {
        type            cyclic;
    }
    frontAndBack
    {
        type            empty;
    }
}


// ************************************************************************* //
