/*--------------------------------*- C++ -*----------------------------------*\
| =========                 |                                                 |
| \\      /  F ield         | OpenFOAM: The Open Source CFD Toolbox           |
|  \\    /   O peration     | Version:  2212                                  |
|   \\  /    A nd           | Website:  www.openfoam.com                      |
|    \\/     M anipulation  |                                                 |
\*---------------------------------------------------------------------------*/
FoamFile
{
    version     2.0;
    format      ascii;
    arch        "LSB;label=32;scalar=64";
    class       volScalarField;
    location    "43892";
    object      k;
}
// * * * * * * * * * * * * * * * * * * * * * * * * * * * * * * * * * * * * * //

dimensions      [0 2 -2 0 0 0 0];

internalField   nonuniform List<scalar> 
400
(
0.00036557
9.09366e-05
0.000257548
0.000866143
0.00219989
0.00461135
0.00850205
0.0143171
0.022541
0.0336918
0.0483116
0.0669524
0.0901562
0.118428
0.152205
0.191818
0.237457
0.289139
0.346686
0.409723
0.477691
0.549876
0.625457
0.703556
0.783287
0.863802
0.944329
1.02419
1.1028
1.1797
1.25453
1.32701
1.39696
1.46427
1.52891
1.59095
1.65044
1.70739
1.76183
1.8138
1.86336
1.91059
1.95556
1.99835
2.03904
2.07773
2.11449
2.14943
2.18261
2.21412
2.24406
2.27248
2.29948
2.32511
2.34946
2.37258
2.39454
2.4154
2.43522
2.45404
2.47192
2.48891
2.50505
2.52038
2.53495
2.54879
2.56194
2.57444
2.5863
2.59758
2.60828
2.61845
2.62811
2.63727
2.64598
2.65424
2.66207
2.66951
2.67656
2.68325
2.68958
2.69557
2.70123
2.70658
2.71161
2.71634
2.72079
2.72495
2.72885
2.73248
2.73585
2.73898
2.74186
2.74451
2.74694
2.74914
2.75112
2.7529
2.75447
2.75584
2.75701
2.75799
2.75879
2.7594
2.75984
2.7601
2.76019
2.76011
2.75986
2.75946
2.7589
2.75818
2.75731
2.75628
2.75511
2.7538
2.75234
2.75074
2.749
2.74712
2.74511
2.74296
2.74068
2.73827
2.73573
2.73307
2.73027
2.72735
2.72431
2.72115
2.71786
2.71445
2.71092
2.70728
2.70351
2.69963
2.69563
2.69152
2.68729
2.68294
2.67849
2.67392
2.66923
2.66443
2.65953
2.65451
2.64938
2.64413
2.63878
2.63332
2.62775
2.62206
2.61627
2.61037
2.60436
2.59824
2.59201
2.58567
2.57923
2.57267
2.56601
2.55923
2.55235
2.54536
2.53826
2.53105
2.52373
2.51631
2.50877
2.50113
2.49337
2.48551
2.47754
2.46945
2.46125
2.45293
2.44449
2.43593
2.42725
2.41844
2.40951
2.40045
2.39127
2.38196
2.37251
2.36294
2.35324
2.34341
2.33344
2.32335
2.31313
2.30279
2.29232
2.28174
2.27104
2.26023
2.24931
2.2383
2.22718
2.21596
2.20519
2.19491
2.18465
2.17441
2.16418
2.15397
2.14378
2.1336
2.12345
2.11332
2.1032
2.09311
2.08304
2.07299
2.06297
2.05297
2.04299
2.03304
2.02311
2.01321
2.00333
1.99348
1.98366
1.97386
1.9641
1.95436
1.94465
1.93497
1.92532
1.9157
1.90611
1.89655
1.88702
1.87753
1.86807
1.85864
1.84925
1.83988
1.83056
1.82127
1.81201
1.80279
1.7936
1.78445
1.77534
1.76627
1.75723
1.74823
1.73927
1.73035
1.72147
1.71263
1.70382
1.69506
1.68634
1.67766
1.66902
1.66043
1.65187
1.64336
1.6349
1.62647
1.61809
1.60976
1.60147
1.59322
1.58502
1.57687
1.56876
1.5607
1.55268
1.54472
1.5368
1.52892
1.5211
1.51333
1.5056
1.49792
1.4903
1.48272
1.47519
1.46772
1.46029
1.45292
1.4456
1.43833
1.43111
1.42395
1.41684
1.40978
1.40277
1.39582
1.38893
1.38208
1.3753
1.36856
1.36189
1.35527
1.3487
1.34219
1.33574
1.32934
1.323
1.31672
1.3105
1.30433
1.29822
1.29217
1.28618
1.28025
1.27437
1.26856
1.2628
1.25711
1.25147
1.2459
1.24038
1.23493
1.22953
1.2242
1.21893
1.21372
1.20857
1.20348
1.19846
1.1935
1.1886
1.18376
1.17898
1.17427
1.16962
1.16504
1.16051
1.15605
1.15166
1.14733
1.14306
1.13886
1.13472
1.13064
1.12663
1.12269
1.11881
1.11499
1.11124
1.10755
1.10393
1.10038
1.09689
1.09346
1.0901
1.08681
1.08358
1.08042
1.07733
1.0743
1.07134
1.06844
1.06561
1.06285
1.06015
1.05752
1.05496
1.05246
1.05003
1.04767
1.04537
1.04314
1.04098
1.03888
1.03686
1.0349
1.033
1.03118
1.02942
1.02772
1.0261
1.02454
1.02305
1.02163
1.02028
1.01899
1.01777
1.01662
1.01553
1.01452
1.01357
1.01269
1.01187
1.01113
1.01045
1.00984
1.0093
1.00882
1.00842
1.00808
1.00781
1.0076
1.00747
1.0074
)
;

boundaryField
{
    topWall
    {
        type            symmetry;
    }
    bottomWall
    {
        type            kLowReWallFunction;
        value           uniform 2.08521e-11;
    }
    inlet
    {
        type            cyclic;
    }
    outlet
    {
        type            cyclic;
    }
    frontAndBack
    {
        type            empty;
    }
}


// ************************************************************************* //
