/*--------------------------------*- C++ -*----------------------------------*\
| =========                 |                                                 |
| \\      /  F ield         | OpenFOAM: The Open Source CFD Toolbox           |
|  \\    /   O peration     | Version:  2212                                  |
|   \\  /    A nd           | Website:  www.openfoam.com                      |
|    \\/     M anipulation  |                                                 |
\*---------------------------------------------------------------------------*/
FoamFile
{
    version     2.0;
    format      ascii;
    arch        "LSB;label=32;scalar=64";
    class       volScalarField;
    location    "43892";
    object      nut;
}
// * * * * * * * * * * * * * * * * * * * * * * * * * * * * * * * * * * * * * //

dimensions      [0 2 -1 0 0 0 0];

internalField   nonuniform List<scalar> 
400
(
9.8722e-11
1.48959e-10
1.23491e-09
8.75667e-09
3.90479e-08
1.28276e-07
3.43367e-07
7.94685e-07
1.64995e-06
3.14844e-06
5.61392e-06
9.46432e-06
1.52157e-05
2.34777e-05
3.49397e-05
5.03447e-05
7.04552e-05
9.60116e-05
0.00012769
0.000166064
0.000211577
0.000264527
0.000325068
0.000393217
0.000468878
0.000551867
0.000641933
0.000738788
0.000842119
0.000951608
0.00106694
0.00118781
0.00131394
0.00144505
0.00157488
0.00170567
0.00184086
0.00198099
0.00212602
0.00227591
0.00243063
0.00259013
0.00275438
0.00292331
0.00309689
0.00327507
0.0034578
0.00364504
0.00383675
0.00403287
0.00423332
0.00443808
0.00464714
0.00486045
0.00507798
0.00529971
0.0055256
0.00575562
0.00598975
0.00622795
0.00647022
0.00671652
0.00696685
0.00722119
0.00747954
0.00774189
0.00800824
0.0082786
0.00855298
0.0088314
0.00911386
0.00940038
0.00969093
0.00998543
0.0102837
0.0105853
0.0108885
0.0111896
0.0114909
0.0117958
0.0121041
0.012416
0.0127314
0.0130504
0.0133729
0.0136989
0.0140285
0.0143616
0.0146983
0.0150386
0.0153824
0.0157299
0.0160809
0.0164356
0.0167938
0.0171557
0.0175213
0.0178904
0.0182632
0.0186397
0.0190198
0.0194037
0.0197912
0.0201824
0.0205772
0.0209758
0.0213782
0.0217842
0.022194
0.0226075
0.0230248
0.0234458
0.0238705
0.0242991
0.0247314
0.0251675
0.0256074
0.0260511
0.0264986
0.0269499
0.0274049
0.0278639
0.0283266
0.0287931
0.0292635
0.0297376
0.0302157
0.0306975
0.0311832
0.0316726
0.032166
0.0326631
0.0331641
0.0336689
0.0341775
0.03469
0.0352063
0.0357263
0.0362502
0.0367779
0.0373094
0.0378447
0.0383837
0.0389266
0.0394732
0.0400235
0.0405776
0.0411354
0.041697
0.0422622
0.0428312
0.0434038
0.0439801
0.04456
0.0451435
0.0457306
0.0463214
0.0469156
0.0475135
0.0481148
0.0487196
0.0493279
0.0499396
0.0505548
0.0511733
0.0517951
0.0524203
0.0530487
0.0536804
0.0543153
0.0549533
0.0555945
0.0562217
0.0568399
0.0574539
0.0580665
0.0586792
0.0592931
0.059909
0.0605276
0.0611493
0.0617748
0.0624045
0.0630391
0.0636793
0.0643262
0.0649812
0.0656457
0.0663217
0.0670116
0.0677177
0.0684427
0.069189
0.0699584
0.0707517
0.0715674
0.072401
0.073244
0.0740778
0.07487
0.0755586
0.0762114
0.0768591
0.0775017
0.0781392
0.0787718
0.0793994
0.080022
0.0806399
0.0812529
0.0818611
0.0824646
0.0830634
0.0836576
0.0842472
0.0848323
0.0854128
0.0859889
0.0865606
0.0871278
0.0876908
0.0882494
0.0888038
0.0893539
0.0898999
0.0904418
0.0909795
0.0915132
0.0920428
0.0925685
0.0930902
0.093608
0.0941219
0.094632
0.0951383
0.0956408
0.0961396
0.0966346
0.097126
0.0976138
0.098098
0.0985786
0.0990556
0.0995292
0.0999993
0.100466
0.100929
0.101389
0.101845
0.102299
0.102749
0.103195
0.103638
0.104079
0.104516
0.104949
0.10538
0.105808
0.106232
0.106653
0.107072
0.107487
0.107899
0.108309
0.108715
0.109119
0.109519
0.109917
0.110312
0.110704
0.111093
0.11148
0.111863
0.112244
0.112622
0.112997
0.11337
0.11374
0.114107
0.114472
0.114834
0.115193
0.115549
0.115903
0.116254
0.116603
0.116949
0.117293
0.117634
0.117972
0.118308
0.118641
0.118972
0.1193
0.119626
0.119949
0.120269
0.120587
0.120903
0.121216
0.121526
0.121834
0.12214
0.122443
0.122743
0.123041
0.123337
0.12363
0.12392
0.124208
0.124493
0.124776
0.125056
0.125334
0.125609
0.125882
0.126152
0.126419
0.126684
0.126947
0.127207
0.127464
0.127718
0.12797
0.128219
0.128466
0.12871
0.128951
0.12919
0.129426
0.129659
0.12989
0.130117
0.130342
0.130565
0.130784
0.131001
0.131214
0.131425
0.131634
0.131839
0.132041
0.132241
0.132437
0.132631
0.132821
0.133009
0.133193
0.133375
0.133553
0.133729
0.133901
0.13407
0.134236
0.134399
0.134559
0.134716
0.134869
0.135019
0.135166
0.13531
0.13545
0.135587
0.135721
0.135851
0.135978
0.136102
0.136222
0.136339
0.136452
0.136562
0.136668
0.136771
0.136871
0.136966
0.137059
0.137147
0.137233
0.137314
0.137392
0.137466
0.137537
0.137604
0.137668
0.137727
0.137783
0.137836
0.137884
0.137929
0.137971
0.138008
0.138042
0.138072
0.138098
0.138121
0.13814
0.138155
0.138166
0.138173
0.138177
)
;

boundaryField
{
    topWall
    {
        type            symmetry;
    }
    bottomWall
    {
        type            nutLowReWallFunction;
        value           uniform 0;
    }
    inlet
    {
        type            cyclic;
    }
    outlet
    {
        type            cyclic;
    }
    frontAndBack
    {
        type            empty;
    }
}


// ************************************************************************* //
