/*--------------------------------*- C++ -*----------------------------------*\
| =========                 |                                                 |
| \\      /  F ield         | OpenFOAM: The Open Source CFD Toolbox           |
|  \\    /   O peration     | Version:  2212                                  |
|   \\  /    A nd           | Website:  www.openfoam.com                      |
|    \\/     M anipulation  |                                                 |
\*---------------------------------------------------------------------------*/
FoamFile
{
    version     2.0;
    format      ascii;
    arch        "LSB;label=32;scalar=64";
    class       volSymmTensorField;
    location    "43892";
    object      T2;
}
// * * * * * * * * * * * * * * * * * * * * * * * * * * * * * * * * * * * * * //

dimensions      [0 0 0 0 0 0 0];

internalField   nonuniform List<symmTensor> 
400
(
(-1.26651e-08 5.21227e-17 0 1.26651e-08 0 0)
(-4.65629e-07 8.81027e-16 0 4.65629e-07 0 0)
(-3.98656e-06 2.56139e-15 0 3.98656e-06 0 0)
(-1.77091e-05 7.43486e-14 0 1.77091e-05 0 0)
(-5.45409e-05 7.2608e-13 0 5.45409e-05 0 0)
(-0.000133833 5.04105e-12 0 0.000133833 0 0)
(-0.000281784 2.85606e-11 0 0.000281784 0 0)
(-0.000531515 1.36763e-10 0 0.000531515 0 0)
(-0.000922573 5.57177e-10 0 0.000922573 0 0)
(-0.00149959 1.9359e-09 0 0.00149959 0 0)
(-0.00230982 5.74753e-09 0 0.00230982 0 0)
(-0.00339934 1.45776e-08 0 0.00339934 0 0)
(-0.00480799 3.14314e-08 0 0.00480799 0 0)
(-0.00656342 5.68399e-08 0 0.00656342 0 0)
(-0.00867501 8.3523e-08 0 0.00867501 0 0)
(-0.011129 9.16189e-08 0 0.011129 0 0)
(-0.0138862 5.11457e-08 0 0.0138862 0 0)
(-0.0168829 -6.29606e-08 0 0.0168829 0 0)
(-0.020036 -2.47807e-07 0 0.020036 0 0)
(-0.0232516 -4.58284e-07 0 0.0232516 0 0)
(-0.0264348 -6.18398e-07 0 0.0264348 0 0)
(-0.0294988 -6.57034e-07 0 0.0294988 0 0)
(-0.0323732 -5.45571e-07 0 0.0323732 0 0)
(-0.0350071 -3.1183e-07 0 0.0350071 0 0)
(-0.0373707 -2.37742e-08 0 0.0373707 0 0)
(-0.0394527 2.42256e-07 0 0.0394527 0 0)
(-0.0412569 4.32958e-07 0 0.0412569 0 0)
(-0.0427981 5.52706e-07 0 0.0427981 0 0)
(-0.044098 6.87235e-07 0 0.044098 0 0)
(-0.0451817 8.44642e-07 0 0.0451817 0 0)
(-0.0460759 1.0429e-07 0 0.0460759 0 0)
(-0.0468056 -4.9501e-06 0 0.0468056 0 0)
(-0.0473911 -1.62078e-06 0 0.0473911 0 0)
(-0.0478984 1.16384e-05 0 0.0478984 0 0)
(-0.04805 6.36547e-06 0 0.04805 0 0)
(-0.04805 -6.31289e-06 0 0.04805 0 0)
(-0.04805 -4.78092e-06 0 0.04805 0 0)
(-0.04805 -4.56336e-07 0 0.04805 0 0)
(-0.04805 3.8888e-07 0 0.04805 0 0)
(-0.04805 1.46909e-07 0 0.04805 0 0)
(-0.04805 -7.72451e-09 0 0.04805 0 0)
(-0.04805 -1.79103e-08 0 0.04805 0 0)
(-0.04805 -3.34826e-09 0 0.04805 0 0)
(-0.04805 5.83612e-10 0 0.04805 0 0)
(-0.04805 -8.59072e-10 0 0.04805 0 0)
(-0.04805 -2.86675e-09 0 0.04805 0 0)
(-0.04805 -6.56689e-09 0 0.04805 0 0)
(-0.04805 -1.20722e-08 0 0.04805 0 0)
(-0.04805 -5.91181e-09 0 0.04805 0 0)
(-0.04805 7.47266e-09 0 0.04805 0 0)
(-0.04805 1.8453e-09 0 0.04805 0 0)
(-0.04805 -1.06733e-08 0 0.04805 0 0)
(-0.04805 -1.07e-08 0 0.04805 0 0)
(-0.04805 -6.84724e-09 0 0.04805 0 0)
(-0.04805 -5.28849e-09 0 0.04805 0 0)
(-0.04805 -5.13313e-09 0 0.04805 0 0)
(-0.04805 -5.15117e-09 0 0.04805 0 0)
(-0.04805 -5.04402e-09 0 0.04805 0 0)
(-0.04805 -4.86677e-09 0 0.04805 0 0)
(-0.04805 -4.66767e-09 0 0.04805 0 0)
(-0.04805 -4.454e-09 0 0.04805 0 0)
(-0.04805 -4.22514e-09 0 0.04805 0 0)
(-0.04805 -3.98644e-09 0 0.04805 0 0)
(-0.04805 -3.7483e-09 0 0.04805 0 0)
(-0.04805 -3.51404e-09 0 0.04805 0 0)
(-0.04805 -3.26883e-09 0 0.04805 0 0)
(-0.04805 -3.07001e-09 0 0.04805 0 0)
(-0.04805 -3.39273e-09 0 0.04805 0 0)
(-0.04805 -5.28712e-09 0 0.04805 0 0)
(-0.04805 -8.28388e-09 0 0.04805 0 0)
(-0.04805 -5.46134e-09 0 0.04805 0 0)
(-0.04805 9.06711e-09 0 0.04805 0 0)
(-0.04805 -1.78652e-08 0 0.04805 0 0)
(-0.04805 -2.58858e-07 0 0.04805 0 0)
(-0.04805 -7.57438e-07 0 0.04805 0 0)
(-0.04805 1.38414e-07 0 0.04805 0 0)
(-0.04805 1.75518e-06 0 0.04805 0 0)
(-0.048033 5.50644e-07 0 0.048033 0 0)
(-0.0480116 -1.1145e-06 0 0.0480116 0 0)
(-0.0479958 -5.03549e-07 0 0.0479958 0 0)
(-0.0479798 1.11793e-07 0 0.0479798 0 0)
(-0.0479646 5.03498e-08 0 0.0479646 0 0)
(-0.0479499 1.19361e-08 0 0.0479499 0 0)
(-0.0479356 -2.28174e-10 0 0.0479356 0 0)
(-0.0479218 -3.40887e-09 0 0.0479218 0 0)
(-0.0479084 -2.41472e-09 0 0.0479084 0 0)
(-0.0478955 -1.61634e-09 0 0.0478955 0 0)
(-0.0478831 -1.33413e-09 0 0.0478831 0 0)
(-0.0478711 -1.22918e-09 0 0.0478711 0 0)
(-0.0478597 -1.15844e-09 0 0.0478597 0 0)
(-0.0478487 -1.08468e-09 0 0.0478487 0 0)
(-0.0478383 -1.00976e-09 0 0.0478383 0 0)
(-0.0478284 -9.38913e-10 0 0.0478284 0 0)
(-0.047819 -8.73786e-10 0 0.047819 0 0)
(-0.04781 -8.14053e-10 0 0.04781 0 0)
(-0.0478016 -7.59032e-10 0 0.0478016 0 0)
(-0.0477937 -7.08306e-10 0 0.0477937 0 0)
(-0.0477863 -6.61544e-10 0 0.0477863 0 0)
(-0.0477794 -6.18329e-10 0 0.0477794 0 0)
(-0.0477729 -5.78343e-10 0 0.0477729 0 0)
(-0.047767 -5.41373e-10 0 0.047767 0 0)
(-0.0477615 -5.07127e-10 0 0.0477615 0 0)
(-0.0477565 -4.75422e-10 0 0.0477565 0 0)
(-0.047752 -4.46028e-10 0 0.047752 0 0)
(-0.0477479 -4.18727e-10 0 0.0477479 0 0)
(-0.0477442 -3.93391e-10 0 0.0477442 0 0)
(-0.047741 -3.69873e-10 0 0.047741 0 0)
(-0.0477383 -3.47984e-10 0 0.0477383 0 0)
(-0.0477359 -3.27595e-10 0 0.0477359 0 0)
(-0.047734 -3.08679e-10 0 0.047734 0 0)
(-0.0477325 -2.91031e-10 0 0.0477325 0 0)
(-0.0477314 -2.74538e-10 0 0.0477314 0 0)
(-0.0477307 -2.59202e-10 0 0.0477307 0 0)
(-0.0477304 -2.44902e-10 0 0.0477304 0 0)
(-0.0477304 -2.31525e-10 0 0.0477304 0 0)
(-0.0477308 -2.19009e-10 0 0.0477308 0 0)
(-0.0477316 -2.07344e-10 0 0.0477316 0 0)
(-0.0477328 -1.96424e-10 0 0.0477328 0 0)
(-0.0477342 -1.86233e-10 0 0.0477342 0 0)
(-0.0477361 -1.76677e-10 0 0.0477361 0 0)
(-0.0477382 -1.67597e-10 0 0.0477382 0 0)
(-0.0477407 -1.593e-10 0 0.0477407 0 0)
(-0.0477435 -1.51514e-10 0 0.0477435 0 0)
(-0.0477466 -1.44029e-10 0 0.0477466 0 0)
(-0.0477499 -1.37169e-10 0 0.0477499 0 0)
(-0.0477536 -1.30594e-10 0 0.0477536 0 0)
(-0.0477576 -1.24531e-10 0 0.0477576 0 0)
(-0.0477618 -1.18937e-10 0 0.0477618 0 0)
(-0.0477662 -1.13389e-10 0 0.0477662 0 0)
(-0.0477709 -1.08406e-10 0 0.0477709 0 0)
(-0.0477759 -1.03843e-10 0 0.0477759 0 0)
(-0.0477811 -9.91608e-11 0 0.0477811 0 0)
(-0.0477865 -9.49256e-11 0 0.0477865 0 0)
(-0.0477921 -9.12806e-11 0 0.0477921 0 0)
(-0.0477979 -8.74621e-11 0 0.0477979 0 0)
(-0.0478039 -8.39039e-11 0 0.0478039 0 0)
(-0.0478101 -8.07835e-11 0 0.0478101 0 0)
(-0.0478165 -7.7637e-11 0 0.0478165 0 0)
(-0.047823 -7.48111e-11 0 0.047823 0 0)
(-0.0478297 -7.21118e-11 0 0.0478297 0 0)
(-0.0478365 -6.9612e-11 0 0.0478365 0 0)
(-0.0478434 -6.73165e-11 0 0.0478434 0 0)
(-0.0478505 -6.49249e-11 0 0.0478505 0 0)
(-0.0478577 -6.29495e-11 0 0.0478577 0 0)
(-0.0478649 -6.11212e-11 0 0.0478649 0 0)
(-0.0478723 -5.92432e-11 0 0.0478723 0 0)
(-0.0478797 -5.74989e-11 0 0.0478797 0 0)
(-0.0478872 -5.59641e-11 0 0.0478872 0 0)
(-0.0478947 -5.46352e-11 0 0.0478947 0 0)
(-0.0479023 -5.31608e-11 0 0.0479023 0 0)
(-0.0479098 -5.18497e-11 0 0.0479098 0 0)
(-0.0479174 -5.087e-11 0 0.0479174 0 0)
(-0.047925 -4.9744e-11 0 0.047925 0 0)
(-0.0479325 -4.85594e-11 0 0.0479325 0 0)
(-0.04794 -4.77714e-11 0 0.04794 0 0)
(-0.0479474 -4.69858e-11 0 0.0479474 0 0)
(-0.0479548 -4.61715e-11 0 0.0479548 0 0)
(-0.0479621 -4.55519e-11 0 0.0479621 0 0)
(-0.0479692 -4.38076e-11 0 0.0479692 0 0)
(-0.0479763 -3.77589e-11 0 0.0479763 0 0)
(-0.0479831 -2.68759e-11 0 0.0479831 0 0)
(-0.0479899 -3.30623e-11 0 0.0479899 0 0)
(-0.0479964 -1.18693e-10 0 0.0479964 0 0)
(-0.0480028 -5.37972e-10 0 0.0480028 0 0)
(-0.0480089 -1.08994e-09 0 0.0480089 0 0)
(-0.0480147 1.70506e-09 0 0.0480147 0 0)
(-0.0480203 6.45338e-09 0 0.0480203 0 0)
(-0.0480255 3.38896e-08 0 0.0480255 0 0)
(-0.0480306 1.08811e-07 0 0.0480306 0 0)
(-0.0480355 -4.8787e-07 0 0.0480355 0 0)
(-0.0480395 -4.33341e-07 0 0.0480395 0 0)
(-0.0480497 8.3646e-07 0 0.0480497 0 0)
(-0.04805 5.06149e-07 0 0.04805 0 0)
(-0.04805 -3.32148e-07 0 0.04805 0 0)
(-0.04805 -1.65326e-07 0 0.04805 0 0)
(-0.04805 -3.0499e-08 0 0.04805 0 0)
(-0.04805 -3.83588e-09 0 0.04805 0 0)
(-0.04805 -8.19619e-09 0 0.04805 0 0)
(-0.04805 -7.85707e-09 0 0.04805 0 0)
(-0.04805 -3.58129e-09 0 0.04805 0 0)
(-0.04805 2.95732e-10 0 0.04805 0 0)
(-0.04805 3.01308e-09 0 0.04805 0 0)
(-0.04805 5.0862e-09 0 0.04805 0 0)
(-0.04805 6.79735e-09 0 0.04805 0 0)
(-0.04805 8.11219e-09 0 0.04805 0 0)
(-0.04805 8.84704e-09 0 0.04805 0 0)
(-0.04805 8.71452e-09 0 0.04805 0 0)
(-0.04805 7.31888e-09 0 0.04805 0 0)
(-0.04805 4.14673e-09 0 0.04805 0 0)
(-0.04805 -1.5943e-09 0 0.04805 0 0)
(-0.04805 -1.1456e-08 0 0.04805 0 0)
(-0.04805 -2.75425e-08 0 0.04805 0 0)
(-0.04805 -4.81699e-08 0 0.04805 0 0)
(-0.04805 -6.08311e-08 0 0.04805 0 0)
(-0.04805 -6.43674e-08 0 0.04805 0 0)
(-0.04805 -1.72643e-07 0 0.04805 0 0)
(-0.04805 -6.3368e-07 0 0.04805 0 0)
(-0.04805 -9.92289e-07 0 0.04805 0 0)
(-0.04805 1.79515e-06 0 0.04805 0 0)
(-0.0480457 2.53501e-06 0 0.0480457 0 0)
(-0.0480092 -1.62556e-06 0 0.0480092 0 0)
(-0.0479939 -1.5467e-06 0 0.0479939 0 0)
(-0.0479755 4.08857e-07 0 0.0479755 0 0)
(-0.0479562 1.07392e-07 0 0.0479562 0 0)
(-0.047936 1.84618e-08 0 0.047936 0 0)
(-0.0479141 5.20803e-09 0 0.0479141 0 0)
(-0.0478907 -3.92857e-09 0 0.0478907 0 0)
(-0.0478656 -1.57038e-09 0 0.0478656 0 0)
(-0.0478389 -1.68096e-10 0 0.0478389 0 0)
(-0.0478106 5.49849e-11 0 0.0478106 0 0)
(-0.0477806 6.32312e-11 0 0.0477806 0 0)
(-0.0477488 2.51443e-11 0 0.0477488 0 0)
(-0.0477153 7.81226e-12 0 0.0477153 0 0)
(-0.04768 5.49123e-12 0 0.04768 0 0)
(-0.0476429 6.37697e-12 0 0.0476429 0 0)
(-0.0476039 7.57651e-12 0 0.0476039 0 0)
(-0.0475631 8.7973e-12 0 0.0475631 0 0)
(-0.0475203 1.02069e-11 0 0.0475203 0 0)
(-0.0474755 1.18969e-11 0 0.0474755 0 0)
(-0.0474287 1.38534e-11 0 0.0474287 0 0)
(-0.0473799 1.60236e-11 0 0.0473799 0 0)
(-0.047329 1.83654e-11 0 0.047329 0 0)
(-0.047276 2.08491e-11 0 0.047276 0 0)
(-0.0472209 2.34424e-11 0 0.0472209 0 0)
(-0.0471635 2.61234e-11 0 0.0471635 0 0)
(-0.0471039 2.88742e-11 0 0.0471039 0 0)
(-0.047042 3.16788e-11 0 0.047042 0 0)
(-0.0469778 3.45251e-11 0 0.0469778 0 0)
(-0.0469112 3.74095e-11 0 0.0469112 0 0)
(-0.0468423 4.03206e-11 0 0.0468423 0 0)
(-0.0467709 4.32452e-11 0 0.0467709 0 0)
(-0.046697 4.6188e-11 0 0.046697 0 0)
(-0.0466205 4.91445e-11 0 0.0466205 0 0)
(-0.0465415 5.21101e-11 0 0.0465415 0 0)
(-0.0464599 5.50879e-11 0 0.0464599 0 0)
(-0.0463755 5.80687e-11 0 0.0463755 0 0)
(-0.0462885 6.10486e-11 0 0.0462885 0 0)
(-0.0461988 6.40345e-11 0 0.0461988 0 0)
(-0.0461062 6.7023e-11 0 0.0461062 0 0)
(-0.0460108 7.00075e-11 0 0.0460108 0 0)
(-0.0459124 7.29872e-11 0 0.0459124 0 0)
(-0.0458112 7.59595e-11 0 0.0458112 0 0)
(-0.0457069 7.89219e-11 0 0.0457069 0 0)
(-0.0455996 8.18732e-11 0 0.0455996 0 0)
(-0.0454893 8.48084e-11 0 0.0454893 0 0)
(-0.0453758 8.77207e-11 0 0.0453758 0 0)
(-0.0452591 9.06146e-11 0 0.0452591 0 0)
(-0.0451392 9.34784e-11 0 0.0451392 0 0)
(-0.0450161 9.63032e-11 0 0.0450161 0 0)
(-0.0448896 9.90932e-11 0 0.0448896 0 0)
(-0.0447598 1.01839e-10 0 0.0447598 0 0)
(-0.0446265 1.04533e-10 0 0.0446265 0 0)
(-0.0444898 1.07169e-10 0 0.0444898 0 0)
(-0.0443496 1.09747e-10 0 0.0443496 0 0)
(-0.0442058 1.12251e-10 0 0.0442058 0 0)
(-0.0440584 1.14669e-10 0 0.0440584 0 0)
(-0.0439074 1.17008e-10 0 0.0439074 0 0)
(-0.0437527 1.1925e-10 0 0.0437527 0 0)
(-0.0435943 1.21387e-10 0 0.0435943 0 0)
(-0.043432 1.23411e-10 0 0.043432 0 0)
(-0.043266 1.25311e-10 0 0.043266 0 0)
(-0.0430961 1.27083e-10 0 0.0430961 0 0)
(-0.0429222 1.2871e-10 0 0.0429222 0 0)
(-0.0427444 1.30188e-10 0 0.0427444 0 0)
(-0.0425626 1.31501e-10 0 0.0425626 0 0)
(-0.0423768 1.32634e-10 0 0.0423768 0 0)
(-0.0421869 1.33588e-10 0 0.0421869 0 0)
(-0.0419929 1.34343e-10 0 0.0419929 0 0)
(-0.0417947 1.34892e-10 0 0.0417947 0 0)
(-0.0415923 1.35225e-10 0 0.0415923 0 0)
(-0.0413856 1.35322e-10 0 0.0413856 0 0)
(-0.0411747 1.35174e-10 0 0.0411747 0 0)
(-0.0409595 1.34778e-10 0 0.0409595 0 0)
(-0.04074 1.3412e-10 0 0.04074 0 0)
(-0.0405161 1.33178e-10 0 0.0405161 0 0)
(-0.0402877 1.31944e-10 0 0.0402877 0 0)
(-0.040055 1.30407e-10 0 0.040055 0 0)
(-0.0398178 1.28563e-10 0 0.0398178 0 0)
(-0.0395761 1.26424e-10 0 0.0395761 0 0)
(-0.0393299 1.23963e-10 0 0.0393299 0 0)
(-0.0390792 1.2113e-10 0 0.0390792 0 0)
(-0.0388239 1.17902e-10 0 0.0388239 0 0)
(-0.0385641 1.14294e-10 0 0.0385641 0 0)
(-0.0382997 1.1033e-10 0 0.0382997 0 0)
(-0.0380306 1.06016e-10 0 0.0380306 0 0)
(-0.037757 1.01321e-10 0 0.037757 0 0)
(-0.0374788 9.6227e-11 0 0.0374788 0 0)
(-0.0371959 9.07351e-11 0 0.0371959 0 0)
(-0.0369084 8.48362e-11 0 0.0369084 0 0)
(-0.0366163 7.85251e-11 0 0.0366163 0 0)
(-0.0363195 7.18078e-11 0 0.0363195 0 0)
(-0.0360181 6.46815e-11 0 0.0360181 0 0)
(-0.0357121 5.71382e-11 0 0.0357121 0 0)
(-0.0354015 4.91838e-11 0 0.0354015 0 0)
(-0.0350863 4.08258e-11 0 0.0350863 0 0)
(-0.0347666 3.2062e-11 0 0.0347666 0 0)
(-0.0344422 2.28967e-11 0 0.0344422 0 0)
(-0.0341133 1.33381e-11 0 0.0341133 0 0)
(-0.0337799 3.39752e-12 0 0.0337799 0 0)
(-0.0334421 -6.91352e-12 0 0.0334421 0 0)
(-0.0330998 -1.7584e-11 0 0.0330998 0 0)
(-0.032753 -2.85939e-11 0 0.032753 0 0)
(-0.0324019 -3.9929e-11 0 0.0324019 0 0)
(-0.0320465 -5.15767e-11 0 0.0320465 0 0)
(-0.0316868 -6.35159e-11 0 0.0316868 0 0)
(-0.0313229 -7.57199e-11 0 0.0313229 0 0)
(-0.0309548 -8.8161e-11 0 0.0309548 0 0)
(-0.0305827 -1.00818e-10 0 0.0305827 0 0)
(-0.0302065 -1.13659e-10 0 0.0302065 0 0)
(-0.0298263 -1.26657e-10 0 0.0298263 0 0)
(-0.0294422 -1.39787e-10 0 0.0294422 0 0)
(-0.0290543 -1.53006e-10 0 0.0290543 0 0)
(-0.0286627 -1.66276e-10 0 0.0286627 0 0)
(-0.0282674 -1.79566e-10 0 0.0282674 0 0)
(-0.0278686 -1.92834e-10 0 0.0278686 0 0)
(-0.0274664 -2.06045e-10 0 0.0274664 0 0)
(-0.0270608 -2.19154e-10 0 0.0270608 0 0)
(-0.026652 -2.32113e-10 0 0.026652 0 0)
(-0.02624 -2.44881e-10 0 0.02624 0 0)
(-0.025825 -2.57412e-10 0 0.025825 0 0)
(-0.0254072 -2.6966e-10 0 0.0254072 0 0)
(-0.0249866 -2.81583e-10 0 0.0249866 0 0)
(-0.0245633 -2.93127e-10 0 0.0245633 0 0)
(-0.0241376 -3.04237e-10 0 0.0241376 0 0)
(-0.0237095 -3.14875e-10 0 0.0237095 0 0)
(-0.0232792 -3.25002e-10 0 0.0232792 0 0)
(-0.0228469 -3.34565e-10 0 0.0228469 0 0)
(-0.0224127 -3.43509e-10 0 0.0224127 0 0)
(-0.0219767 -3.51795e-10 0 0.0219767 0 0)
(-0.0215392 -3.59383e-10 0 0.0215392 0 0)
(-0.0211003 -3.6623e-10 0 0.0211003 0 0)
(-0.0206602 -3.72295e-10 0 0.0206602 0 0)
(-0.020219 -3.77543e-10 0 0.020219 0 0)
(-0.019777 -3.81935e-10 0 0.019777 0 0)
(-0.0193344 -3.85441e-10 0 0.0193344 0 0)
(-0.0188913 -3.88033e-10 0 0.0188913 0 0)
(-0.0184479 -3.89682e-10 0 0.0184479 0 0)
(-0.0180044 -3.90368e-10 0 0.0180044 0 0)
(-0.0175611 -3.90073e-10 0 0.0175611 0 0)
(-0.0171181 -3.88782e-10 0 0.0171181 0 0)
(-0.0166757 -3.86487e-10 0 0.0166757 0 0)
(-0.0162341 -3.83179e-10 0 0.0162341 0 0)
(-0.0157936 -3.78856e-10 0 0.0157936 0 0)
(-0.0153542 -3.73528e-10 0 0.0153542 0 0)
(-0.0149163 -3.67203e-10 0 0.0149163 0 0)
(-0.0144802 -3.59892e-10 0 0.0144802 0 0)
(-0.0140459 -3.51617e-10 0 0.0140459 0 0)
(-0.0136138 -3.42403e-10 0 0.0136138 0 0)
(-0.0131842 -3.3228e-10 0 0.0131842 0 0)
(-0.0127572 -3.21282e-10 0 0.0127572 0 0)
(-0.0123331 -3.0945e-10 0 0.0123331 0 0)
(-0.0119121 -2.9683e-10 0 0.0119121 0 0)
(-0.0114946 -2.83472e-10 0 0.0114946 0 0)
(-0.0110807 -2.6943e-10 0 0.0110807 0 0)
(-0.0106707 -2.54768e-10 0 0.0106707 0 0)
(-0.0102648 -2.3954e-10 0 0.0102648 0 0)
(-0.00986335 -2.23824e-10 0 0.00986335 0 0)
(-0.00946654 -2.07688e-10 0 0.00946654 0 0)
(-0.00907464 -1.91208e-10 0 0.00907464 0 0)
(-0.0086879 -1.74461e-10 0 0.0086879 0 0)
(-0.00830657 -1.57527e-10 0 0.00830657 0 0)
(-0.00793091 -1.40487e-10 0 0.00793091 0 0)
(-0.00756116 -1.23425e-10 0 0.00756116 0 0)
(-0.00719757 -1.06429e-10 0 0.00719757 0 0)
(-0.00684039 -8.95846e-11 0 0.00684039 0 0)
(-0.00648986 -7.29629e-11 0 0.00648986 0 0)
(-0.00614623 -5.66631e-11 0 0.00614623 0 0)
(-0.00580974 -4.07636e-11 0 0.00580974 0 0)
(-0.00548062 -2.53459e-11 0 0.00548062 0 0)
(-0.00515911 -1.0489e-11 0 0.00515911 0 0)
(-0.00484544 3.73237e-12 0 0.00484544 0 0)
(-0.00453984 1.72451e-11 0 0.00453984 0 0)
(-0.00424253 2.99797e-11 0 0.00424253 0 0)
(-0.00395372 4.18797e-11 0 0.00395372 0 0)
(-0.00367363 5.288e-11 0 0.00367363 0 0)
(-0.00340248 6.2929e-11 0 0.00340248 0 0)
(-0.00314046 7.19807e-11 0 0.00314046 0 0)
(-0.00288776 7.99945e-11 0 0.00288776 0 0)
(-0.00264459 8.69365e-11 0 0.00264459 0 0)
(-0.00241113 9.27791e-11 0 0.00241113 0 0)
(-0.00218755 9.75132e-11 0 0.00218755 0 0)
(-0.00197403 1.01117e-10 0 0.00197403 0 0)
(-0.00177074 1.03588e-10 0 0.00177074 0 0)
(-0.00157783 1.04933e-10 0 0.00157783 0 0)
(-0.00139546 1.05162e-10 0 0.00139546 0 0)
(-0.00122376 1.04297e-10 0 0.00122376 0 0)
(-0.00106287 1.02365e-10 0 0.00106287 0 0)
(-0.000912929 9.94022e-11 0 0.000912929 0 0)
(-0.000774043 9.54629e-11 0 0.000774043 0 0)
(-0.000646327 9.06203e-11 0 0.000646327 0 0)
(-0.000529883 8.49031e-11 0 0.000529883 0 0)
(-0.000424804 7.81191e-11 0 0.000424804 0 0)
(-0.000331175 7.00573e-11 0 0.000331175 0 0)
(-0.000249071 6.23007e-11 0 0.000249071 0 0)
(-0.000178559 5.97206e-11 0 0.000178559 0 0)
(-0.000119697 5.88752e-11 0 0.000119697 0 0)
(-7.25319e-05 2.11161e-11 0 7.25319e-05 0 0)
(-3.70976e-05 -8.67224e-11 0 3.70976e-05 0 0)
(-1.34229e-05 -3.09425e-11 0 1.34229e-05 0 0)
(-1.50059e-06 4.35655e-11 0 1.50059e-06 0 0)
)
;

boundaryField
{
    topWall
    {
        type            symmetry;
    }
    bottomWall
    {
        type            calculated;
        value           uniform (-1.26699e-08 5.10423e-17 0 1.26699e-08 0 0);
    }
    inlet
    {
        type            cyclic;
    }
    outlet
    {
        type            cyclic;
    }
    frontAndBack
    {
        type            empty;
    }
}


// ************************************************************************* //
