/*--------------------------------*- C++ -*----------------------------------*\
| =========                 |                                                 |
| \\      /  F ield         | OpenFOAM: The Open Source CFD Toolbox           |
|  \\    /   O peration     | Version:  2212                                  |
|   \\  /    A nd           | Website:  www.openfoam.com                      |
|    \\/     M anipulation  |                                                 |
\*---------------------------------------------------------------------------*/
FoamFile
{
    version     2.0;
    format      ascii;
    arch        "LSB;label=32;scalar=64";
    class       volSymmTensorField;
    location    "43892";
    object      T4;
}
// * * * * * * * * * * * * * * * * * * * * * * * * * * * * * * * * * * * * * //

dimensions      [0 0 0 0 0 0 0];

internalField   nonuniform List<symmTensor> 
400
(
(-2.11085e-09 0 0 -2.11085e-09 0 4.22169e-09)
(-7.76048e-08 0 0 -7.76048e-08 0 1.5521e-07)
(-6.64427e-07 0 0 -6.64427e-07 0 1.32885e-06)
(-2.95151e-06 0 0 -2.95151e-06 0 5.90303e-06)
(-9.09014e-06 0 0 -9.09014e-06 0 1.81803e-05)
(-2.23054e-05 0 0 -2.23054e-05 0 4.46109e-05)
(-4.6964e-05 0 0 -4.6964e-05 0 9.39281e-05)
(-8.85859e-05 0 0 -8.85859e-05 0 0.000177172)
(-0.000153762 0 0 -0.000153762 0 0.000307524)
(-0.000249932 0 0 -0.000249932 0 0.000499864)
(-0.00038497 0 0 -0.00038497 0 0.00076994)
(-0.000566557 0 0 -0.000566557 0 0.00113311)
(-0.000801332 0 0 -0.000801332 0 0.00160266)
(-0.0010939 0 0 -0.0010939 0 0.00218781)
(-0.00144584 0 0 -0.00144584 0 0.00289167)
(-0.00185484 0 0 -0.00185484 0 0.00370968)
(-0.00231437 0 0 -0.00231437 0 0.00462874)
(-0.00281381 0 0 -0.00281381 0 0.00562762)
(-0.00333933 0 0 -0.00333933 0 0.00667867)
(-0.00387527 0 0 -0.00387527 0 0.00775055)
(-0.00440579 0 0 -0.00440579 0 0.00881159)
(-0.00491647 0 0 -0.00491647 0 0.00983294)
(-0.00539553 0 0 -0.00539553 0 0.0107911)
(-0.00583452 0 0 -0.00583452 0 0.011669)
(-0.00622845 0 0 -0.00622845 0 0.0124569)
(-0.00657545 0 0 -0.00657545 0 0.0131509)
(-0.00687615 0 0 -0.00687615 0 0.0137523)
(-0.00713302 0 0 -0.00713302 0 0.014266)
(-0.00734966 0 0 -0.00734966 0 0.0146993)
(-0.00753028 0 0 -0.00753028 0 0.0150606)
(-0.00767932 0 0 -0.00767932 0 0.0153586)
(-0.00780093 0 0 -0.00780093 0 0.0156019)
(-0.00789852 0 0 -0.00789852 0 0.015797)
(-0.00798306 0 0 -0.00798306 0 0.0159661)
(-0.00800833 0 0 -0.00800833 0 0.0160167)
(-0.00800833 0 0 -0.00800833 0 0.0160167)
(-0.00800833 0 0 -0.00800833 0 0.0160167)
(-0.00800833 0 0 -0.00800833 0 0.0160167)
(-0.00800833 0 0 -0.00800833 0 0.0160167)
(-0.00800833 0 0 -0.00800833 0 0.0160167)
(-0.00800833 0 0 -0.00800833 0 0.0160167)
(-0.00800833 0 0 -0.00800833 0 0.0160167)
(-0.00800833 0 0 -0.00800833 0 0.0160167)
(-0.00800833 0 0 -0.00800833 0 0.0160167)
(-0.00800833 0 0 -0.00800833 0 0.0160167)
(-0.00800833 0 0 -0.00800833 0 0.0160167)
(-0.00800833 0 0 -0.00800833 0 0.0160167)
(-0.00800833 0 0 -0.00800833 0 0.0160167)
(-0.00800833 0 0 -0.00800833 0 0.0160167)
(-0.00800833 0 0 -0.00800833 0 0.0160167)
(-0.00800833 0 0 -0.00800833 0 0.0160167)
(-0.00800833 0 0 -0.00800833 0 0.0160167)
(-0.00800833 0 0 -0.00800833 0 0.0160167)
(-0.00800833 0 0 -0.00800833 0 0.0160167)
(-0.00800833 0 0 -0.00800833 0 0.0160167)
(-0.00800833 0 0 -0.00800833 0 0.0160167)
(-0.00800833 0 0 -0.00800833 0 0.0160167)
(-0.00800833 0 0 -0.00800833 0 0.0160167)
(-0.00800833 0 0 -0.00800833 0 0.0160167)
(-0.00800833 0 0 -0.00800833 0 0.0160167)
(-0.00800833 0 0 -0.00800833 0 0.0160167)
(-0.00800833 0 0 -0.00800833 0 0.0160167)
(-0.00800833 0 0 -0.00800833 0 0.0160167)
(-0.00800833 0 0 -0.00800833 0 0.0160167)
(-0.00800833 0 0 -0.00800833 0 0.0160167)
(-0.00800833 0 0 -0.00800833 0 0.0160167)
(-0.00800833 0 0 -0.00800833 0 0.0160167)
(-0.00800833 0 0 -0.00800833 0 0.0160167)
(-0.00800833 0 0 -0.00800833 0 0.0160167)
(-0.00800833 0 0 -0.00800833 0 0.0160167)
(-0.00800833 0 0 -0.00800833 0 0.0160167)
(-0.00800833 0 0 -0.00800833 0 0.0160167)
(-0.00800833 0 0 -0.00800833 0 0.0160167)
(-0.00800833 0 0 -0.00800833 0 0.0160167)
(-0.00800833 0 0 -0.00800833 0 0.0160167)
(-0.00800833 0 0 -0.00800833 0 0.0160167)
(-0.00800833 0 0 -0.00800833 0 0.0160167)
(-0.0080055 0 0 -0.0080055 0 0.016011)
(-0.00800194 0 0 -0.00800194 0 0.0160039)
(-0.0079993 0 0 -0.0079993 0 0.0159986)
(-0.00799664 0 0 -0.00799664 0 0.0159933)
(-0.0079941 0 0 -0.0079941 0 0.0159882)
(-0.00799165 0 0 -0.00799165 0 0.0159833)
(-0.00798927 0 0 -0.00798927 0 0.0159785)
(-0.00798697 0 0 -0.00798697 0 0.0159739)
(-0.00798473 0 0 -0.00798473 0 0.0159695)
(-0.00798258 0 0 -0.00798258 0 0.0159652)
(-0.00798051 0 0 -0.00798051 0 0.015961)
(-0.00797852 0 0 -0.00797852 0 0.015957)
(-0.00797661 0 0 -0.00797661 0 0.0159532)
(-0.00797479 0 0 -0.00797479 0 0.0159496)
(-0.00797305 0 0 -0.00797305 0 0.0159461)
(-0.0079714 0 0 -0.0079714 0 0.0159428)
(-0.00796983 0 0 -0.00796983 0 0.0159397)
(-0.00796834 0 0 -0.00796834 0 0.0159367)
(-0.00796694 0 0 -0.00796694 0 0.0159339)
(-0.00796562 0 0 -0.00796562 0 0.0159312)
(-0.00796438 0 0 -0.00796438 0 0.0159288)
(-0.00796323 0 0 -0.00796323 0 0.0159265)
(-0.00796216 0 0 -0.00796216 0 0.0159243)
(-0.00796117 0 0 -0.00796117 0 0.0159223)
(-0.00796025 0 0 -0.00796025 0 0.0159205)
(-0.00795942 0 0 -0.00795942 0 0.0159188)
(-0.00795866 0 0 -0.00795866 0 0.0159173)
(-0.00795798 0 0 -0.00795798 0 0.015916)
(-0.00795737 0 0 -0.00795737 0 0.0159147)
(-0.00795684 0 0 -0.00795684 0 0.0159137)
(-0.00795638 0 0 -0.00795638 0 0.0159128)
(-0.00795599 0 0 -0.00795599 0 0.015912)
(-0.00795567 0 0 -0.00795567 0 0.0159113)
(-0.00795541 0 0 -0.00795541 0 0.0159108)
(-0.00795523 0 0 -0.00795523 0 0.0159105)
(-0.00795511 0 0 -0.00795511 0 0.0159102)
(-0.00795506 0 0 -0.00795506 0 0.0159101)
(-0.00795507 0 0 -0.00795507 0 0.0159101)
(-0.00795514 0 0 -0.00795514 0 0.0159103)
(-0.00795527 0 0 -0.00795527 0 0.0159105)
(-0.00795546 0 0 -0.00795546 0 0.0159109)
(-0.00795571 0 0 -0.00795571 0 0.0159114)
(-0.00795601 0 0 -0.00795601 0 0.015912)
(-0.00795637 0 0 -0.00795637 0 0.0159127)
(-0.00795678 0 0 -0.00795678 0 0.0159136)
(-0.00795725 0 0 -0.00795725 0 0.0159145)
(-0.00795776 0 0 -0.00795776 0 0.0159155)
(-0.00795832 0 0 -0.00795832 0 0.0159166)
(-0.00795894 0 0 -0.00795894 0 0.0159179)
(-0.00795959 0 0 -0.00795959 0 0.0159192)
(-0.00796029 0 0 -0.00796029 0 0.0159206)
(-0.00796104 0 0 -0.00796104 0 0.0159221)
(-0.00796182 0 0 -0.00796182 0 0.0159236)
(-0.00796265 0 0 -0.00796265 0 0.0159253)
(-0.00796351 0 0 -0.00796351 0 0.015927)
(-0.00796441 0 0 -0.00796441 0 0.0159288)
(-0.00796535 0 0 -0.00796535 0 0.0159307)
(-0.00796632 0 0 -0.00796632 0 0.0159326)
(-0.00796732 0 0 -0.00796732 0 0.0159346)
(-0.00796835 0 0 -0.00796835 0 0.0159367)
(-0.00796941 0 0 -0.00796941 0 0.0159388)
(-0.0079705 0 0 -0.0079705 0 0.015941)
(-0.00797161 0 0 -0.00797161 0 0.0159432)
(-0.00797275 0 0 -0.00797275 0 0.0159455)
(-0.00797391 0 0 -0.00797391 0 0.0159478)
(-0.00797509 0 0 -0.00797509 0 0.0159502)
(-0.00797628 0 0 -0.00797628 0 0.0159526)
(-0.00797749 0 0 -0.00797749 0 0.015955)
(-0.00797872 0 0 -0.00797872 0 0.0159574)
(-0.00797995 0 0 -0.00797995 0 0.0159599)
(-0.0079812 0 0 -0.0079812 0 0.0159624)
(-0.00798245 0 0 -0.00798245 0 0.0159649)
(-0.00798371 0 0 -0.00798371 0 0.0159674)
(-0.00798497 0 0 -0.00798497 0 0.0159699)
(-0.00798623 0 0 -0.00798623 0 0.0159725)
(-0.00798749 0 0 -0.00798749 0 0.015975)
(-0.00798875 0 0 -0.00798875 0 0.0159775)
(-0.00799 0 0 -0.00799 0 0.01598)
(-0.00799124 0 0 -0.00799124 0 0.0159825)
(-0.00799246 0 0 -0.00799246 0 0.0159849)
(-0.00799368 0 0 -0.00799368 0 0.0159874)
(-0.00799487 0 0 -0.00799487 0 0.0159897)
(-0.00799604 0 0 -0.00799604 0 0.0159921)
(-0.00799719 0 0 -0.00799719 0 0.0159944)
(-0.00799831 0 0 -0.00799831 0 0.0159966)
(-0.0079994 0 0 -0.0079994 0 0.0159988)
(-0.00800046 0 0 -0.00800046 0 0.0160009)
(-0.00800148 0 0 -0.00800148 0 0.016003)
(-0.00800245 0 0 -0.00800245 0 0.0160049)
(-0.00800338 0 0 -0.00800338 0 0.0160068)
(-0.00800425 0 0 -0.00800425 0 0.0160085)
(-0.0080051 0 0 -0.0080051 0 0.0160102)
(-0.00800592 0 0 -0.00800592 0 0.0160118)
(-0.00800658 0 0 -0.00800658 0 0.0160132)
(-0.00800828 0 0 -0.00800828 0 0.0160166)
(-0.00800833 0 0 -0.00800833 0 0.0160167)
(-0.00800833 0 0 -0.00800833 0 0.0160167)
(-0.00800833 0 0 -0.00800833 0 0.0160167)
(-0.00800833 0 0 -0.00800833 0 0.0160167)
(-0.00800833 0 0 -0.00800833 0 0.0160167)
(-0.00800833 0 0 -0.00800833 0 0.0160167)
(-0.00800833 0 0 -0.00800833 0 0.0160167)
(-0.00800833 0 0 -0.00800833 0 0.0160167)
(-0.00800833 0 0 -0.00800833 0 0.0160167)
(-0.00800833 0 0 -0.00800833 0 0.0160167)
(-0.00800833 0 0 -0.00800833 0 0.0160167)
(-0.00800833 0 0 -0.00800833 0 0.0160167)
(-0.00800833 0 0 -0.00800833 0 0.0160167)
(-0.00800833 0 0 -0.00800833 0 0.0160167)
(-0.00800833 0 0 -0.00800833 0 0.0160167)
(-0.00800833 0 0 -0.00800833 0 0.0160167)
(-0.00800833 0 0 -0.00800833 0 0.0160167)
(-0.00800833 0 0 -0.00800833 0 0.0160167)
(-0.00800833 0 0 -0.00800833 0 0.0160167)
(-0.00800833 0 0 -0.00800833 0 0.0160167)
(-0.00800833 0 0 -0.00800833 0 0.0160167)
(-0.00800833 0 0 -0.00800833 0 0.0160167)
(-0.00800833 0 0 -0.00800833 0 0.0160167)
(-0.00800833 0 0 -0.00800833 0 0.0160167)
(-0.00800833 0 0 -0.00800833 0 0.0160167)
(-0.00800833 0 0 -0.00800833 0 0.0160167)
(-0.00800833 0 0 -0.00800833 0 0.0160167)
(-0.00800762 0 0 -0.00800762 0 0.0160152)
(-0.00800153 0 0 -0.00800153 0 0.0160031)
(-0.00799899 0 0 -0.00799899 0 0.015998)
(-0.00799591 0 0 -0.00799591 0 0.0159918)
(-0.0079927 0 0 -0.0079927 0 0.0159854)
(-0.00798933 0 0 -0.00798933 0 0.0159787)
(-0.00798569 0 0 -0.00798569 0 0.0159714)
(-0.00798178 0 0 -0.00798178 0 0.0159636)
(-0.0079776 0 0 -0.0079776 0 0.0159552)
(-0.00797316 0 0 -0.00797316 0 0.0159463)
(-0.00796843 0 0 -0.00796843 0 0.0159369)
(-0.00796343 0 0 -0.00796343 0 0.0159269)
(-0.00795814 0 0 -0.00795814 0 0.0159163)
(-0.00795255 0 0 -0.00795255 0 0.0159051)
(-0.00794667 0 0 -0.00794667 0 0.0158933)
(-0.00794048 0 0 -0.00794048 0 0.015881)
(-0.00793399 0 0 -0.00793399 0 0.015868)
(-0.00792718 0 0 -0.00792718 0 0.0158544)
(-0.00792004 0 0 -0.00792004 0 0.0158401)
(-0.00791258 0 0 -0.00791258 0 0.0158252)
(-0.00790479 0 0 -0.00790479 0 0.0158096)
(-0.00789665 0 0 -0.00789665 0 0.0157933)
(-0.00788817 0 0 -0.00788817 0 0.0157763)
(-0.00787934 0 0 -0.00787934 0 0.0157587)
(-0.00787014 0 0 -0.00787014 0 0.0157403)
(-0.00786058 0 0 -0.00786058 0 0.0157212)
(-0.00785065 0 0 -0.00785065 0 0.0157013)
(-0.00784033 0 0 -0.00784033 0 0.0156807)
(-0.00782963 0 0 -0.00782963 0 0.0156593)
(-0.00781854 0 0 -0.00781854 0 0.0156371)
(-0.00780705 0 0 -0.00780705 0 0.0156141)
(-0.00779514 0 0 -0.00779514 0 0.0155903)
(-0.00778283 0 0 -0.00778283 0 0.0155657)
(-0.00777009 0 0 -0.00777009 0 0.0155402)
(-0.00775692 0 0 -0.00775692 0 0.0155138)
(-0.00774331 0 0 -0.00774331 0 0.0154866)
(-0.00772926 0 0 -0.00772926 0 0.0154585)
(-0.00771476 0 0 -0.00771476 0 0.0154295)
(-0.00769979 0 0 -0.00769979 0 0.0153996)
(-0.00768436 0 0 -0.00768436 0 0.0153687)
(-0.00766846 0 0 -0.00766846 0 0.0153369)
(-0.00765207 0 0 -0.00765207 0 0.0153041)
(-0.0076352 0 0 -0.0076352 0 0.0152704)
(-0.00761782 0 0 -0.00761782 0 0.0152356)
(-0.00759994 0 0 -0.00759994 0 0.0151999)
(-0.00758155 0 0 -0.00758155 0 0.0151631)
(-0.00756263 0 0 -0.00756263 0 0.0151253)
(-0.00754319 0 0 -0.00754319 0 0.0150864)
(-0.00752321 0 0 -0.00752321 0 0.0150464)
(-0.00750268 0 0 -0.00750268 0 0.0150054)
(-0.0074816 0 0 -0.0074816 0 0.0149632)
(-0.00745996 0 0 -0.00745996 0 0.0149199)
(-0.00743775 0 0 -0.00743775 0 0.0148755)
(-0.00741496 0 0 -0.00741496 0 0.0148299)
(-0.0073916 0 0 -0.0073916 0 0.0147832)
(-0.00736763 0 0 -0.00736763 0 0.0147353)
(-0.00734307 0 0 -0.00734307 0 0.0146861)
(-0.0073179 0 0 -0.0073179 0 0.0146358)
(-0.00729212 0 0 -0.00729212 0 0.0145842)
(-0.00726571 0 0 -0.00726571 0 0.0145314)
(-0.00723867 0 0 -0.00723867 0 0.0144773)
(-0.007211 0 0 -0.007211 0 0.014422)
(-0.00718268 0 0 -0.00718268 0 0.0143654)
(-0.00715371 0 0 -0.00715371 0 0.0143074)
(-0.00712407 0 0 -0.00712407 0 0.0142481)
(-0.00709377 0 0 -0.00709377 0 0.0141875)
(-0.0070628 0 0 -0.0070628 0 0.0141256)
(-0.00703115 0 0 -0.00703115 0 0.0140623)
(-0.00699881 0 0 -0.00699881 0 0.0139976)
(-0.00696578 0 0 -0.00696578 0 0.0139316)
(-0.00693204 0 0 -0.00693204 0 0.0138641)
(-0.00689761 0 0 -0.00689761 0 0.0137952)
(-0.00686246 0 0 -0.00686246 0 0.0137249)
(-0.00682659 0 0 -0.00682659 0 0.0136532)
(-0.00679 0 0 -0.00679 0 0.01358)
(-0.00675268 0 0 -0.00675268 0 0.0135054)
(-0.00671462 0 0 -0.00671462 0 0.0134292)
(-0.00667583 0 0 -0.00667583 0 0.0133517)
(-0.0066363 0 0 -0.0066363 0 0.0132726)
(-0.00659602 0 0 -0.00659602 0 0.013192)
(-0.00655499 0 0 -0.00655499 0 0.01311)
(-0.0065132 0 0 -0.0065132 0 0.0130264)
(-0.00647065 0 0 -0.00647065 0 0.0129413)
(-0.00642735 0 0 -0.00642735 0 0.0128547)
(-0.00638328 0 0 -0.00638328 0 0.0127666)
(-0.00633844 0 0 -0.00633844 0 0.0126769)
(-0.00629284 0 0 -0.00629284 0 0.0125857)
(-0.00624646 0 0 -0.00624646 0 0.0124929)
(-0.00619932 0 0 -0.00619932 0 0.0123986)
(-0.0061514 0 0 -0.0061514 0 0.0123028)
(-0.00610271 0 0 -0.00610271 0 0.0122054)
(-0.00605325 0 0 -0.00605325 0 0.0121065)
(-0.00600302 0 0 -0.00600302 0 0.012006)
(-0.00595202 0 0 -0.00595202 0 0.011904)
(-0.00590026 0 0 -0.00590026 0 0.0118005)
(-0.00584772 0 0 -0.00584772 0 0.0116954)
(-0.00579443 0 0 -0.00579443 0 0.0115889)
(-0.00574037 0 0 -0.00574037 0 0.0114807)
(-0.00568556 0 0 -0.00568556 0 0.0113711)
(-0.00562999 0 0 -0.00562999 0 0.01126)
(-0.00557368 0 0 -0.00557368 0 0.0111474)
(-0.00551663 0 0 -0.00551663 0 0.0110333)
(-0.00545884 0 0 -0.00545884 0 0.0109177)
(-0.00540032 0 0 -0.00540032 0 0.0108006)
(-0.00534109 0 0 -0.00534109 0 0.0106822)
(-0.00528114 0 0 -0.00528114 0 0.0105623)
(-0.00522049 0 0 -0.00522049 0 0.010441)
(-0.00515914 0 0 -0.00515914 0 0.0103183)
(-0.00509711 0 0 -0.00509711 0 0.0101942)
(-0.00503441 0 0 -0.00503441 0 0.0100688)
(-0.00497105 0 0 -0.00497105 0 0.00994209)
(-0.00490703 0 0 -0.00490703 0 0.00981407)
(-0.00484239 0 0 -0.00484239 0 0.00968477)
(-0.00477712 0 0 -0.00477712 0 0.00955423)
(-0.00471124 0 0 -0.00471124 0 0.00942248)
(-0.00464477 0 0 -0.00464477 0 0.00928955)
(-0.00457773 0 0 -0.00457773 0 0.00915547)
(-0.00451013 0 0 -0.00451013 0 0.00902027)
(-0.00444199 0 0 -0.00444199 0 0.00888399)
(-0.00437333 0 0 -0.00437333 0 0.00874667)
(-0.00430417 0 0 -0.00430417 0 0.00860835)
(-0.00423453 0 0 -0.00423453 0 0.00846906)
(-0.00416443 0 0 -0.00416443 0 0.00832886)
(-0.00409389 0 0 -0.00409389 0 0.00818778)
(-0.00402293 0 0 -0.00402293 0 0.00804587)
(-0.00395159 0 0 -0.00395159 0 0.00790317)
(-0.00387987 0 0 -0.00387987 0 0.00775975)
(-0.00380782 0 0 -0.00380782 0 0.00761564)
(-0.00373545 0 0 -0.00373545 0 0.0074709)
(-0.00366279 0 0 -0.00366279 0 0.00732558)
(-0.00358987 0 0 -0.00358987 0 0.00717974)
(-0.00351672 0 0 -0.00351672 0 0.00703344)
(-0.00344337 0 0 -0.00344337 0 0.00688674)
(-0.00336984 0 0 -0.00336984 0 0.00673968)
(-0.00329617 0 0 -0.00329617 0 0.00659235)
(-0.0032224 0 0 -0.0032224 0 0.00644479)
(-0.00314854 0 0 -0.00314854 0 0.00629708)
(-0.00307464 0 0 -0.00307464 0 0.00614929)
(-0.00300073 0 0 -0.00300073 0 0.00600147)
(-0.00292685 0 0 -0.00292685 0 0.00585369)
(-0.00285302 0 0 -0.00285302 0 0.00570604)
(-0.00277929 0 0 -0.00277929 0 0.00555858)
(-0.00270569 0 0 -0.00270569 0 0.00541138)
(-0.00263226 0 0 -0.00263226 0 0.00526452)
(-0.00255904 0 0 -0.00255904 0 0.00511807)
(-0.00248606 0 0 -0.00248606 0 0.00497211)
(-0.00241336 0 0 -0.00241336 0 0.00482672)
(-0.00234099 0 0 -0.00234099 0 0.00468197)
(-0.00226897 0 0 -0.00226897 0 0.00453795)
(-0.00219736 0 0 -0.00219736 0 0.00439473)
(-0.0021262 0 0 -0.0021262 0 0.0042524)
(-0.00205551 0 0 -0.00205551 0 0.00411103)
(-0.00198536 0 0 -0.00198536 0 0.00397071)
(-0.00191576 0 0 -0.00191576 0 0.00383153)
(-0.00184678 0 0 -0.00184678 0 0.00369356)
(-0.00177844 0 0 -0.00177844 0 0.00355689)
(-0.0017108 0 0 -0.0017108 0 0.0034216)
(-0.00164389 0 0 -0.00164389 0 0.00328778)
(-0.00157776 0 0 -0.00157776 0 0.00315551)
(-0.00151244 0 0 -0.00151244 0 0.00302488)
(-0.00144798 0 0 -0.00144798 0 0.00289597)
(-0.00138443 0 0 -0.00138443 0 0.00276886)
(-0.00132182 0 0 -0.00132182 0 0.00264364)
(-0.00126019 0 0 -0.00126019 0 0.00252039)
(-0.00119959 0 0 -0.00119959 0 0.00239919)
(-0.00114006 0 0 -0.00114006 0 0.00228013)
(-0.00108164 0 0 -0.00108164 0 0.00216329)
(-0.00102437 0 0 -0.00102437 0 0.00204874)
(-0.00096829 0 0 -0.00096829 0 0.00193658)
(-0.000913437 0 0 -0.000913437 0 0.00182687)
(-0.000859852 0 0 -0.000859852 0 0.0017197)
(-0.000807574 0 0 -0.000807574 0 0.00161515)
(-0.00075664 0 0 -0.00075664 0 0.00151328)
(-0.000707088 0 0 -0.000707088 0 0.00141418)
(-0.000658953 0 0 -0.000658953 0 0.00131791)
(-0.000612272 0 0 -0.000612272 0 0.00122454)
(-0.00056708 0 0 -0.00056708 0 0.00113416)
(-0.000523409 0 0 -0.000523409 0 0.00104682)
(-0.000481294 0 0 -0.000481294 0 0.000962588)
(-0.000440765 0 0 -0.000440765 0 0.000881531)
(-0.000401855 0 0 -0.000401855 0 0.000803709)
(-0.000364592 0 0 -0.000364592 0 0.000729184)
(-0.000329006 0 0 -0.000329006 0 0.000658012)
(-0.000295124 0 0 -0.000295124 0 0.000590247)
(-0.000262972 0 0 -0.000262972 0 0.000525944)
(-0.000232576 0 0 -0.000232576 0 0.000465153)
(-0.00020396 0 0 -0.00020396 0 0.00040792)
(-0.000177146 0 0 -0.000177146 0 0.000354291)
(-0.000152155 0 0 -0.000152155 0 0.00030431)
(-0.000129007 0 0 -0.000129007 0 0.000258014)
(-0.000107721 0 0 -0.000107721 0 0.000215442)
(-8.83138e-05 0 0 -8.83138e-05 0 0.000176628)
(-7.08006e-05 0 0 -7.08006e-05 0 0.000141601)
(-5.51958e-05 0 0 -5.51958e-05 0 0.000110392)
(-4.15118e-05 0 0 -4.15118e-05 0 8.30236e-05)
(-2.97599e-05 0 0 -2.97599e-05 0 5.95198e-05)
(-1.99496e-05 0 0 -1.99496e-05 0 3.98991e-05)
(-1.20886e-05 0 0 -1.20886e-05 0 2.41773e-05)
(-6.18294e-06 0 0 -6.18294e-06 0 1.23659e-05)
(-2.23715e-06 0 0 -2.23715e-06 0 4.47431e-06)
(-2.50099e-07 0 0 -2.50099e-07 0 5.00198e-07)
)
;

boundaryField
{
    topWall
    {
        type            symmetry;
    }
    bottomWall
    {
        type            calculated;
        value           uniform (-2.11166e-09 0 0 -2.11166e-09 0 4.22331e-09);
    }
    inlet
    {
        type            cyclic;
    }
    outlet
    {
        type            cyclic;
    }
    frontAndBack
    {
        type            empty;
    }
}


// ************************************************************************* //
