/*--------------------------------*- C++ -*----------------------------------*\
| =========                 |                                                 |
| \\      /  F ield         | OpenFOAM: The Open Source CFD Toolbox           |
|  \\    /   O peration     | Version:  2112                                  |
|   \\  /    A nd           | Website:  www.openfoam.com                      |
|    \\/     M anipulation  |                                                 |
\*---------------------------------------------------------------------------*/
FoamFile
{
    version     2.0;
    format      ascii;
    arch        "LSB;label=32;scalar=64";
    class       volScalarField;
    location    "11000";
    object      omega;
}
// * * * * * * * * * * * * * * * * * * * * * * * * * * * * * * * * * * * * * //

dimensions      [0 0 -1 0 0 0 0];

internalField   nonuniform List<scalar> 
2304
(
2465.53
2465.53
2465.53
2465.53
2465.53
2465.53
2465.53
2465.53
2465.53
2465.53
2465.53
2465.53
2465.53
2465.53
2465.53
2465.53
2465.53
2465.52
2465.52
2465.52
2465.52
2465.52
2465.52
2465.52
2465.52
2465.52
2465.52
2465.51
2465.51
2465.51
2465.51
2465.51
2465.51
2465.51
2465.51
2465.51
2465.51
2465.5
2465.5
2465.5
2465.5
2465.5
2465.5
2465.5
2465.5
2465.5
2465.5
2465.5
416.576
416.569
416.555
416.537
416.513
416.484
416.452
416.416
416.376
416.334
416.288
416.24
416.19
416.137
416.082
416.024
415.965
415.905
415.842
415.777
415.711
415.643
415.573
415.501
415.428
415.352
415.275
415.197
415.117
415.035
414.953
414.87
414.787
414.703
414.62
414.539
414.459
414.382
414.31
414.243
414.184
414.141
414.139
414.277
414.865
414.905
555.981
2465.5
141.99
141.973
141.942
141.897
141.84
141.773
141.696
141.61
141.515
141.413
141.303
141.186
141.063
140.934
140.799
140.659
140.513
140.363
140.207
140.046
139.88
139.709
139.532
139.351
139.164
138.973
138.776
138.574
138.368
138.158
137.945
137.73
137.513
137.295
137.078
136.864
136.655
136.454
136.265
136.096
135.968
135.942
136.246
137.855
145.463
184.311
414.905
2465.5
72.3627
72.34
72.2972
72.2365
72.1593
72.0672
71.9612
71.8422
71.7111
71.5683
71.4145
71.2501
71.0755
70.8911
70.6971
70.4937
70.2812
70.0596
69.8291
69.5898
69.3415
69.0839
68.8168
68.5404
68.255
67.9602
67.6558
67.3419
67.0195
66.6893
66.3522
66.0094
65.6623
65.3126
64.9629
64.616
64.2761
63.9494
63.6479
63.3979
63.2703
63.4741
64.6794
69.1735
85.2202
145.463
414.865
2465.5
46.6511
46.6292
46.5879
46.5289
46.4538
46.3637
46.2594
46.1417
46.0112
45.8681
45.7129
45.5457
45.3667
45.1762
44.974
44.7605
44.5355
44.299
44.0513
43.7922
43.522
43.2409
42.9487
42.645
42.3299
42.0033
41.6648
41.3144
40.9529
40.5813
40.2004
39.8116
39.4165
39.0173
38.617
38.2195
37.8309
37.4621
37.1365
36.9114
36.9365
37.6165
40.0676
47.4462
69.1735
137.855
414.277
2465.5
33.8619
33.8433
33.8081
33.7578
33.6934
33.6159
33.5257
33.4234
33.3091
33.1831
33.0454
32.8961
32.7352
32.5626
32.3784
32.1825
31.9748
31.7554
31.5244
31.282
31.0289
30.7675
30.4976
30.2178
29.928
29.6289
29.3207
29.0035
28.678
28.3451
28.006
27.6621
27.3156
26.9691
26.6263
26.2922
25.9754
25.6923
25.4804
25.43
25.7663
27.05
30.6636
40.0676
64.6794
136.246
414.139
2465.5
26.1083
26.0926
26.0629
26.0203
25.9657
25.8996
25.8223
25.7342
25.6354
25.5258
25.4055
25.2745
25.1326
24.9798
24.8161
24.6416
24.4562
24.2601
24.0538
23.8377
23.6129
23.3816
23.1443
22.9003
22.6505
22.3965
22.1405
21.8833
21.6247
21.3656
21.108
20.8542
20.607
20.3704
20.1496
19.9521
19.7906
19.6893
19.7003
19.9406
20.683
22.5633
27.0501
37.6165
63.4742
135.942
414.141
2465.5
20.8565
20.843
20.8172
20.7802
20.7326
20.6749
20.6072
20.5297
20.4425
20.3456
20.2388
20.1223
19.996
19.86
19.7142
19.5591
19.3948
19.2217
19.0407
18.8524
18.658
18.4587
18.2557
18.0502
17.8438
17.6388
17.4377
17.2428
17.0542
16.8733
16.7027
16.5458
16.4069
16.2911
16.206
16.1626
16.1795
16.2898
16.5606
17.1288
18.2874
20.683
25.7663
36.9366
63.2704
135.968
414.184
2465.5
17.069
17.0568
17.0336
17.0003
16.9573
16.9051
16.8438
16.7735
16.6943
16.6063
16.5093
16.4037
16.2894
16.1669
16.0362
15.898
15.7528
15.6014
15.4447
15.2839
15.12
14.9543
14.7886
14.6247
14.4644
14.31
14.1641
14.0282
13.9045
13.7957
13.7051
13.6372
13.5979
13.5932
13.6327
13.7312
13.9129
14.2201
14.7322
15.6018
17.1288
19.9406
25.43
36.9114
63.398
136.097
414.243
2465.5
14.2304
14.219
14.1974
14.1664
14.1263
14.0776
14.0204
13.955
13.8814
13.7997
13.7103
13.6133
13.5091
13.3984
13.2814
13.1592
13.0326
12.9025
12.7702
12.637
12.5041
12.3726
12.2445
12.1222
12.0068
11.9003
11.8048
11.7224
11.6567
11.6113
11.5905
11.5994
11.6439
11.7321
11.8759
12.0938
12.4159
12.8921
13.6104
14.7322
16.5606
19.7003
25.4804
37.1365
63.6479
136.265
414.31
2465.5
12.0437
12.0328
12.0122
11.9825
11.9443
11.898
11.8437
11.7819
11.7126
11.6364
11.5535
11.4646
11.3702
11.2712
11.1683
11.0626
10.9552
10.8472
10.7396
10.6341
10.5319
10.4337
10.3409
10.2558
10.1798
10.1149
10.063
10.0275
10.012
10.0209
10.0584
10.1296
10.2413
10.4038
10.6315
10.9468
11.3849
12.0022
12.8921
14.2201
16.2898
19.6893
25.6923
37.4621
63.9495
136.454
414.382
2465.51
10.3214
10.3109
10.2909
10.2621
10.2253
10.1808
10.129
10.0704
10.0053
9.93454
9.85856
9.77828
9.69448
9.60822
9.5206
9.43235
9.34497
9.25937
9.1761
9.09641
9.02144
8.95224
8.89023
8.83692
8.7946
8.7653
8.75134
8.75599
8.78313
8.83654
8.92046
9.04089
9.20632
9.42861
9.72465
10.1196
10.6524
11.3849
12.4159
13.9129
16.1795
19.7906
25.9754
37.8309
64.2761
136.655
414.459
2465.51
8.93882
8.92854
8.90905
8.88119
8.84564
8.80295
8.75376
8.6987
8.63843
8.57388
8.50587
8.43545
8.36359
8.29115
8.21968
8.14918
8.08066
8.01505
7.95315
7.89584
7.84429
7.8
7.76437
7.739
7.72599
7.72745
7.74588
7.78448
7.84628
7.9349
8.05549
8.21526
8.42402
8.69516
9.04748
9.50839
10.1196
10.9468
12.0938
13.7312
16.1626
19.9521
26.2922
38.2195
64.616
136.865
414.539
2465.51
7.81028
7.80027
7.78137
7.75449
7.72047
7.68002
7.63401
7.58332
7.52887
7.47173
7.41299
7.35353
7.29446
7.23601
7.17912
7.12434
7.07229
7.02395
6.98049
6.94286
6.91223
6.89
6.87759
6.87657
6.88889
6.91666
6.96244
7.02844
7.11761
7.23422
7.38425
7.57579
7.8199
8.1316
8.53124
9.04748
9.72465
10.6315
11.8759
13.6327
16.206
20.1496
26.6263
38.617
64.9629
137.078
414.621
2465.51
6.87567
6.86603
6.84791
6.82233
6.79033
6.7528
6.71084
6.66553
6.61807
6.56939
6.5207
6.4722
6.42466
6.37855
6.33436
6.29321
6.25586
6.22325
6.19648
6.17653
6.16454
6.16182
6.16971
6.18977
6.2238
6.27384
6.34157
6.42925
6.54039
6.67972
6.85361
7.07097
7.34435
7.69124
8.1316
8.69516
9.42861
10.4038
11.7321
13.5932
16.2911
20.3704
26.9691
39.0173
65.3127
137.295
414.703
2465.51
6.09174
6.08263
6.06563
6.04186
6.01253
5.97879
5.94186
5.90289
5.86321
5.8232
5.78359
5.74475
5.70724
5.67199
5.63958
5.61105
5.5872
5.56893
5.55726
5.55316
5.5577
5.5721
5.59766
5.63586
5.68822
5.75617
5.84144
5.94694
6.07639
6.23472
6.42862
6.66763
6.96624
7.34435
7.8199
8.42402
9.20632
10.2413
11.6439
13.5979
16.4069
20.607
27.3156
39.4165
65.6623
137.513
414.787
2465.51
5.42689
5.41854
5.40308
5.38175
5.35585
5.32675
5.29561
5.26347
5.231
5.19869
5.167
5.13682
5.10878
5.08371
5.06231
5.04548
5.03402
5.02879
5.03071
5.04072
5.05983
5.08916
5.12998
5.18338
5.25051
5.33288
5.43289
5.5536
5.69895
5.87414
6.08618
6.34482
6.66763
7.07097
7.57579
8.21526
9.04089
10.1296
11.5994
13.6372
16.5459
20.8542
27.6621
39.8116
66.0095
137.73
414.87
2465.51
4.85819
4.85082
4.83733
4.81905
4.79717
4.77319
4.74776
4.72173
4.69556
4.6701
4.646
4.62407
4.60498
4.58951
4.57836
4.57235
4.57221
4.57877
4.59284
4.61532
4.64717
4.68945
4.74294
4.80858
4.8877
4.98229
5.0949
5.22879
5.38816
5.57857
5.80748
6.08618
6.42862
6.85361
7.38425
8.05549
8.92046
10.0584
11.5905
13.7051
16.7027
21.108
28.006
40.2005
66.3523
137.945
414.953
2465.51
4.36853
4.36234
4.35112
4.33621
4.31852
4.29914
4.27873
4.25805
4.23787
4.21902
4.20218
4.18812
4.17751
4.17105
4.16942
4.17333
4.18348
4.20061
4.22548
4.2589
4.30182
4.35476
4.41849
4.49421
4.58357
4.6887
4.81228
4.95777
5.12962
5.33372
5.57857
5.87414
6.23472
6.67972
7.23422
7.9349
8.83654
10.0209
11.6113
13.7957
16.8733
21.3657
28.3451
40.5813
66.6893
138.158
415.036
2465.51
3.94461
3.93967
3.93073
3.91883
3.90483
3.88945
3.87363
3.85815
3.84378
3.83131
3.82144
3.81487
3.81223
3.81417
3.8213
3.83426
3.85369
3.88025
3.91465
3.9576
4.00957
4.07116
4.14345
4.22784
4.3261
4.44045
4.57374
4.72959
4.91269
5.12962
5.38816
5.69895
6.07639
6.54039
7.11761
7.84629
8.78314
10.012
11.6567
13.9045
17.0542
21.6247
28.6781
40.953
67.0195
138.368
415.117
2465.52
3.57507
3.57124
3.56429
3.55499
3.54423
3.53275
3.52142
3.51101
3.50227
3.49595
3.49272
3.49323
3.49806
3.50778
3.52293
3.54408
3.57181
3.60673
3.64938
3.70015
3.7595
3.82844
3.90815
4.00012
4.10621
4.22876
4.37075
4.53597
4.72959
4.95777
5.22879
5.5536
5.94694
6.42925
7.02844
7.78448
8.75599
10.0275
11.7224
14.0282
17.2428
21.8833
29.0035
41.3144
67.3419
138.574
415.197
2465.52
3.25039
3.24751
3.24235
3.23559
3.22802
3.22036
3.21343
3.20794
3.20464
3.2042
3.20727
3.21442
3.22618
3.24304
3.26547
3.29399
3.3291
3.37123
3.42066
3.47784
3.5436
3.61896
3.7052
3.80388
3.91696
4.0469
4.19678
4.37075
4.57374
4.81228
5.09491
5.43289
5.84144
6.34157
6.96244
7.74589
8.75134
10.063
11.8048
14.1641
17.4377
22.1405
29.3207
41.6648
67.6558
138.776
415.276
2465.52
2.96331
2.96137
2.95796
2.9537
2.94927
2.94537
2.94271
2.94201
2.94391
2.94907
2.95805
2.97138
2.98951
3.01287
3.04187
3.07696
3.11842
3.16649
3.22157
3.28436
3.35574
3.43679
3.52885
3.63356
3.75297
3.88964
4.0469
4.22876
4.44045
4.6887
4.98229
5.33289
5.75617
6.27384
6.91666
7.72746
8.7653
10.1149
11.9003
14.31
17.6388
22.3965
29.6289
42.0033
67.9602
138.973
415.353
2465.52
2.70824
2.70722
2.70556
2.70375
2.70242
2.70218
2.70369
2.70757
2.71443
2.72485
2.73933
2.75835
2.78229
2.81152
2.8464
2.88714
2.93387
2.98695
3.047
3.11475
3.19114
3.2773
3.37461
3.48481
3.61002
3.75297
3.91696
4.10621
4.3261
4.58357
4.8877
5.25051
5.68822
6.2238
6.88889
7.72599
8.7946
10.1798
12.0068
14.4644
17.8438
22.6505
29.928
42.3299
68.255
139.164
415.428
2465.52
2.48068
2.48057
2.48062
2.48124
2.48293
2.48625
2.49176
2.50002
2.51155
2.52686
2.5464
2.57059
2.59976
2.63426
2.67422
2.71967
2.77091
2.82843
2.8929
2.96511
3.04601
3.1368
3.23892
3.35417
3.48481
3.63356
3.80388
4.00012
4.22784
4.49421
4.80858
5.18338
5.63586
6.18977
6.87657
7.739
8.83692
10.2558
12.1222
14.6247
18.0502
22.9003
30.2178
42.645
68.5405
139.351
415.501
2465.52
2.27694
2.27773
2.27946
2.28244
2.28708
2.29382
2.30314
2.31552
2.3314
2.35121
2.37535
2.40418
2.43801
2.47711
2.52132
2.57084
2.62608
2.68759
2.75606
2.83229
2.91731
3.01235
3.11893
3.23892
3.37461
3.52885
3.7052
3.90816
4.14345
4.41849
4.74294
5.12998
5.59766
6.16971
6.87759
7.76437
8.89023
10.3409
12.2445
14.7886
18.2557
23.1443
30.4977
42.9487
68.8168
139.533
415.573
2465.52
2.09397
2.09564
2.09901
2.10428
2.11174
2.12174
2.13467
2.15089
2.17077
2.19467
2.22293
2.25587
2.2938
2.33673
2.38461
2.43776
2.49662
2.56174
2.63383
2.71377
2.80259
2.90159
3.01235
3.1368
3.2773
3.43679
3.61896
3.82844
4.07117
4.35476
4.68945
5.08916
5.5721
6.16182
6.89001
7.8
8.95224
10.4337
12.3726
14.9544
18.4587
23.3816
30.7675
43.2409
69.0839
139.709
415.643
2465.52
1.92923
1.93176
1.93671
1.94417
1.95431
1.96739
1.98366
2.00342
2.02695
2.05452
2.08642
2.12292
2.16435
2.21053
2.26168
2.31811
2.38025
2.44867
2.52411
2.60747
2.69985
2.80259
2.91731
3.04601
3.19114
3.35574
3.5436
3.7595
4.00957
4.30182
4.64717
5.05983
5.5577
6.16454
6.91223
7.84429
9.02144
10.5319
12.5041
15.1201
18.658
23.6129
31.029
43.522
69.3415
139.88
415.711
2465.52
1.78059
1.78392
1.79038
1.7999
1.81257
1.8285
1.84787
1.87086
1.89766
1.92849
1.96356
2.0031
2.04741
2.09649
2.15058
2.20998
2.27511
2.34659
2.42515
2.51173
2.60747
2.71377
2.83229
2.96511
3.11475
3.28436
3.47784
3.70015
3.9576
4.2589
4.61532
5.04072
5.55316
6.17653
6.94286
7.89584
9.09641
10.6341
12.637
15.2839
18.8524
23.8377
31.282
43.7922
69.5898
140.046
415.778
2465.52
1.64621
1.65031
1.65817
1.66963
1.68462
1.70318
1.72536
1.75125
1.78098
1.81467
1.85249
1.89462
1.94136
1.99299
2.04971
2.1118
2.1797
2.25401
2.3355
2.42515
2.52411
2.63383
2.75606
2.8929
3.047
3.22157
3.42066
3.64938
3.91465
4.22548
4.59284
5.03071
5.55726
6.19648
6.9805
7.95315
9.17611
10.7396
12.7702
15.4448
19.0407
24.0538
31.5244
44.0513
69.8292
140.207
415.842
2465.52
1.52453
1.52933
1.53849
1.55172
1.56884
1.58978
1.61448
1.64296
1.67527
1.71148
1.75169
1.79606
1.8449
1.89872
1.95776
2.0223
2.09275
2.16972
2.25401
2.34659
2.44867
2.56174
2.68759
2.82843
2.98695
3.16649
3.37123
3.60673
3.88025
4.20061
4.57877
5.02879
5.56893
6.22325
7.02396
8.01505
9.25938
10.8472
12.9025
15.6014
19.2217
24.2602
31.7554
44.2991
70.0596
140.363
415.905
2465.53
1.41419
1.41964
1.42997
1.4448
1.46383
1.48688
1.51383
1.5446
1.57918
1.61758
1.6599
1.70626
1.75695
1.81266
1.87374
1.94047
2.01327
2.09275
2.1797
2.27511
2.38025
2.49662
2.62608
2.77091
2.93387
3.11842
3.3291
3.57181
3.85369
4.18348
4.57221
5.03402
5.5872
6.25586
7.0723
8.08066
9.34497
10.9552
13.0326
15.7528
19.3948
24.4562
31.9748
44.5355
70.2812
140.513
415.966
2465.53
1.31401
1.32002
1.33141
1.34765
1.36837
1.39329
1.4222
1.45497
1.49153
1.53187
1.57606
1.62423
1.67664
1.73399
1.79682
1.86551
1.94047
2.0223
2.1118
2.20998
2.31811
2.43776
2.57084
2.71967
2.88714
3.07696
3.29399
3.54408
3.83426
4.17333
4.57235
5.04548
5.61106
6.29321
7.12434
8.14918
9.43235
11.0626
13.1592
15.898
19.5591
24.6416
32.1825
44.7605
70.4937
140.659
416.025
2465.53
1.22295
1.22946
1.24176
1.25923
1.28141
1.30794
1.33855
1.37305
1.41134
1.45339
1.49926
1.5491
1.60319
1.66205
1.72642
1.79682
1.87374
1.95776
2.04971
2.15058
2.26169
2.38461
2.52132
2.67422
2.8464
3.04187
3.26547
3.52293
3.82131
4.16942
4.57837
5.06231
5.63958
6.33436
7.17912
8.21969
9.5206
11.1683
13.2814
16.0362
19.7142
24.8161
32.3784
44.9741
70.6971
140.8
416.082
2465.53
1.14011
1.14705
1.16011
1.17863
1.20205
1.22995
1.262
1.29799
1.33778
1.38134
1.42873
1.48013
1.53581
1.59623
1.66205
1.73399
1.81266
1.89872
1.99299
2.09649
2.21053
2.33673
2.47711
2.63426
2.81152
3.01287
3.24304
3.50778
3.81417
4.17105
4.58951
5.08371
5.67199
6.37856
7.23601
8.29116
9.60823
11.2712
13.3984
16.1669
19.86
24.9798
32.5627
45.1762
70.8911
140.934
416.137
2465.53
1.0647
1.07199
1.08569
1.10507
1.12951
1.15855
1.19181
1.22906
1.27014
1.31503
1.36379
1.41662
1.47381
1.53581
1.60319
1.67664
1.75695
1.8449
1.94136
2.04741
2.16435
2.2938
2.43801
2.59976
2.78229
2.98951
3.22618
3.49806
3.81223
4.17751
4.60498
5.10878
5.70725
6.42466
7.29446
8.36359
9.69448
11.3702
13.5091
16.2894
19.996
25.1326
32.7352
45.3668
71.0756
141.063
416.19
2465.53
0.996049
1.00362
1.01782
1.03788
1.06315
1.09311
1.12736
1.16566
1.20785
1.25389
1.30389
1.35802
1.41662
1.48013
1.5491
1.62423
1.70626
1.79606
1.89462
2.0031
2.12292
2.25587
2.40418
2.57059
2.75835
2.97138
3.21442
3.49323
3.81487
4.18813
4.62407
5.13683
5.74476
6.4722
7.35353
8.43545
9.77828
11.4646
13.6133
16.4037
20.1223
25.2745
32.8961
45.5457
71.2502
141.186
416.24
2465.53
0.933576
0.941352
0.95594
0.976523
1.00242
1.0331
1.06815
1.1073
1.15042
1.19747
1.24856
1.30389
1.36379
1.42873
1.49927
1.57606
1.6599
1.75169
1.85249
1.96356
2.08642
2.22293
2.37535
2.5464
2.73934
2.95805
3.20727
3.49272
3.82144
4.20219
4.646
5.167
5.78359
6.5207
7.41299
8.50587
9.85856
11.5535
13.7103
16.5093
20.2388
25.4055
33.0454
45.7129
71.4145
141.303
416.289
2465.53
0.876805
0.884726
0.899583
0.920537
0.946895
0.978109
1.01377
1.05362
1.0975
1.14542
1.19747
1.25389
1.31503
1.38134
1.45339
1.53187
1.61758
1.71148
1.81467
1.92849
2.05452
2.19467
2.35121
2.52686
2.72485
2.94907
3.2042
3.49595
3.83131
4.21902
4.67011
5.19869
5.8232
6.56939
7.47174
8.57388
9.93454
11.6364
13.7997
16.6063
20.3456
25.5258
33.1831
45.8681
71.5683
141.413
416.334
2465.53
0.825365
0.833374
0.848398
0.86959
0.896255
0.927845
0.963958
1.00434
1.04885
1.0975
1.15042
1.20785
1.27014
1.33778
1.41134
1.49153
1.57918
1.67527
1.78098
1.89766
2.02695
2.17077
2.3314
2.51155
2.71443
2.94391
3.20464
3.50227
3.84378
4.23787
4.69556
5.231
5.86321
6.61808
7.52887
8.63843
10.0053
11.7126
13.8814
16.6943
20.4425
25.6354
33.3091
46.0112
71.7111
141.515
416.377
2465.53
0.77899
0.787039
0.802142
0.823457
0.850295
0.88212
0.918544
0.95932
1.00434
1.05362
1.1073
1.16566
1.22906
1.29799
1.37305
1.45497
1.5446
1.64296
1.75125
1.87086
2.00343
2.15089
2.31552
2.50002
2.70757
2.94201
3.20794
3.51101
3.85815
4.25805
4.72174
5.26347
5.90289
6.66553
7.58332
8.6987
10.0704
11.7819
13.955
16.7735
20.5297
25.7342
33.4234
46.1418
71.8423
141.61
416.416
2465.53
0.73753
0.745578
0.760687
0.782029
0.80893
0.840873
0.877487
0.918544
0.963958
1.01377
1.06815
1.12737
1.19181
1.262
1.33855
1.4222
1.51383
1.61448
1.72536
1.84787
1.98366
2.13467
2.30314
2.49176
2.70369
2.94271
3.21343
3.52142
3.87363
4.27873
4.74776
5.29561
5.94186
6.71085
7.63401
8.75376
10.129
11.8437
14.0205
16.8438
20.6072
25.8223
33.5258
46.2594
71.9612
141.696
416.452
2465.53
0.700952
0.708969
0.724029
0.745323
0.772201
0.804167
0.840873
0.88212
0.927845
0.978109
1.0331
1.09311
1.15855
1.22995
1.30794
1.39329
1.48688
1.58978
1.70318
1.8285
1.96739
2.12175
2.29382
2.48625
2.70218
2.94537
3.22037
3.53275
3.88945
4.29914
4.77319
5.32675
5.97879
6.7528
7.68003
8.80296
10.1808
11.898
14.0776
16.9051
20.6749
25.8996
33.6159
46.3637
72.0672
141.773
416.485
2465.53
0.669357
0.677321
0.692294
0.713489
0.740282
0.772201
0.80893
0.850295
0.896255
0.946895
1.00242
1.06315
1.12951
1.20205
1.28141
1.36837
1.46383
1.56885
1.68462
1.81257
1.95431
2.11174
2.28708
2.48293
2.70242
2.94927
3.22802
3.54423
3.90483
4.31852
4.79717
5.35585
6.01254
6.79033
7.72047
8.84564
10.2253
11.9443
14.1263
16.9573
20.7326
25.9657
33.6935
46.4538
72.1594
141.84
416.513
2465.53
0.642983
0.650884
0.66575
0.686819
0.713489
0.745323
0.782029
0.823457
0.86959
0.920537
0.976523
1.03788
1.10507
1.17863
1.25923
1.34765
1.4448
1.55172
1.66963
1.7999
1.94417
2.10428
2.28244
2.48124
2.70375
2.9537
3.23559
3.55499
3.91883
4.33621
4.81905
5.38176
6.04186
6.82234
7.75449
8.88119
10.2621
11.9825
14.1664
17.0003
20.7802
26.0203
33.7578
46.5289
72.2365
141.897
416.537
2465.53
0.622217
0.630056
0.644814
0.66575
0.692294
0.724029
0.760687
0.802142
0.848398
0.899583
0.95594
1.01782
1.08569
1.16011
1.24176
1.33141
1.42997
1.53849
1.65817
1.79038
1.93671
2.09901
2.27946
2.48062
2.70556
2.95796
3.24235
3.56429
3.93073
4.35112
4.83733
5.40308
6.06563
6.84792
7.78137
8.90905
10.2909
12.0122
14.1974
17.0336
20.8172
26.0629
33.8081
46.5879
72.2973
141.942
416.556
2465.53
0.607606
0.615391
0.630056
0.650884
0.677321
0.708969
0.745578
0.787039
0.833374
0.884726
0.941352
1.00362
1.07199
1.14705
1.22946
1.32002
1.41964
1.52933
1.65031
1.78392
1.93176
2.09564
2.27773
2.48057
2.70722
2.96137
3.24751
3.57124
3.93967
4.36234
4.85082
5.41854
6.08263
6.86603
7.80028
8.92854
10.3109
12.0328
14.219
17.0568
20.843
26.0927
33.8433
46.6293
72.34
141.973
416.569
2465.53
0.59986
0.607606
0.622217
0.642983
0.669357
0.700952
0.73753
0.77899
0.825365
0.876805
0.933576
0.996049
1.0647
1.14011
1.22295
1.31401
1.41419
1.52453
1.64621
1.78059
1.92923
2.09397
2.27694
2.48068
2.70824
2.96331
3.25039
3.57507
3.94461
4.36854
4.85819
5.42689
6.09174
6.87567
7.81028
8.93882
10.3214
12.0437
14.2304
17.069
20.8565
26.1083
33.8619
46.6512
72.3627
141.99
416.576
2465.53
)
;

boundaryField
{
    inlet
    {
        type            cyclic;
    }
    outlet
    {
        type            cyclic;
    }
    walls
    {
        type            omegaWallFunction;
        value           nonuniform List<scalar> 
96
(
2465.5
2465.5
2465.5
2465.5
2465.5
2465.5
2465.5
2465.5
2465.5
2465.5
2465.51
2465.51
2465.51
2465.51
2465.51
2465.51
2465.51
2465.51
2465.51
2465.52
2465.52
2465.52
2465.52
2465.52
2465.52
2465.52
2465.52
2465.52
2465.52
2465.52
2465.53
2465.53
2465.53
2465.53
2465.53
2465.53
2465.53
2465.53
2465.53
2465.53
2465.53
2465.53
2465.53
2465.53
2465.53
2465.53
2465.53
2465.53
2465.53
2465.53
2465.53
2465.53
2465.53
2465.53
2465.53
2465.53
2465.53
2465.53
2465.53
2465.53
2465.53
2465.53
2465.53
2465.53
2465.53
2465.52
2465.52
2465.52
2465.52
2465.52
2465.52
2465.52
2465.52
2465.52
2465.52
2465.51
2465.51
2465.51
2465.51
2465.51
2465.51
2465.51
2465.51
2465.51
2465.51
2465.5
2465.5
2465.5
2465.5
2465.5
2465.5
2465.5
2465.5
2465.5
2465.5
2465.5
)
;
    }
    symPlanes
    {
        type            symmetry;
    }
}


// ************************************************************************* //
