/*--------------------------------*- C++ -*----------------------------------*\
| =========                 |                                                 |
| \\      /  F ield         | OpenFOAM: The Open Source CFD Toolbox           |
|  \\    /   O peration     | Version:  2112                                  |
|   \\  /    A nd           | Website:  www.openfoam.com                      |
|    \\/     M anipulation  |                                                 |
\*---------------------------------------------------------------------------*/
FoamFile
{
    version     2.0;
    format      ascii;
    arch        "LSB;label=32;scalar=64";
    class       volVectorField;
    location    "11000";
    object      U;
}
// * * * * * * * * * * * * * * * * * * * * * * * * * * * * * * * * * * * * * //

dimensions      [0 1 -1 0 0 0 0];

internalField   nonuniform List<vector> 
2304
(
(0.0256243 2.01706e-17 -5.28623e-17)
(0.025589 6.0844e-17 5.07741e-18)
(0.0255225 5.4169e-17 1.44648e-18)
(0.0254279 3.4069e-17 2.68107e-19)
(0.0253081 3.23529e-17 2.88254e-19)
(0.0251652 2.94068e-17 6.77158e-19)
(0.0250009 2.70023e-17 4.01028e-19)
(0.0248167 2.18623e-17 4.0985e-19)
(0.024614 2.16644e-17 1.0195e-19)
(0.0243936 1.94439e-17 4.37074e-19)
(0.0241564 1.75167e-17 5.64843e-19)
(0.0239032 1.68934e-17 6.2641e-19)
(0.0236344 1.51578e-17 6.23587e-19)
(0.0233506 1.45528e-17 4.29829e-19)
(0.0230519 1.24031e-17 3.11422e-19)
(0.0227387 1.1212e-17 2.64016e-19)
(0.0224108 1.19769e-17 4.35722e-20)
(0.0220683 1.23216e-17 1.98789e-19)
(0.0217108 1.06885e-17 2.03933e-19)
(0.0213376 1.08981e-17 1.38345e-19)
(0.0209475 1.04784e-17 3.21243e-19)
(0.020539 9.1654e-18 9.43202e-20)
(0.0201111 9.04082e-18 2.14757e-19)
(0.0196632 8.93588e-18 1.84506e-19)
(0.0191943 8.41219e-18 2.00197e-19)
(0.0187025 7.76738e-18 1.32806e-19)
(0.0181861 7.57008e-18 -1.37521e-20)
(0.0176437 7.7113e-18 7.70031e-20)
(0.017074 7.36249e-18 8.11469e-20)
(0.0164758 6.64101e-18 1.27603e-19)
(0.0158476 6.44356e-18 3.02773e-19)
(0.0151875 6.33282e-18 2.19129e-19)
(0.014494 5.85126e-18 3.90119e-19)
(0.0137653 5.45454e-18 2.63357e-19)
(0.0130005 4.92305e-18 3.51641e-19)
(0.012199 4.2931e-18 2.90574e-19)
(0.0113612 3.90993e-18 2.81467e-19)
(0.0104889 3.41528e-18 3.14574e-19)
(0.00958557 2.88728e-18 2.70172e-19)
(0.00865616 2.47765e-18 2.45174e-19)
(0.00770683 2.12971e-18 2.25093e-19)
(0.00674384 1.75615e-18 2.17094e-19)
(0.00577226 1.35221e-18 2.06196e-19)
(0.00479444 1.00063e-18 1.79486e-19)
(0.00380883 7.00106e-19 1.71058e-19)
(0.00280823 4.31445e-19 1.54851e-19)
(0.00177533 1.90417e-19 1.03917e-19)
(0.00066756 5.38071e-20 3.17672e-20)
(0.0775212 3.92092e-17 -3.44048e-18)
(0.0774137 8.54706e-17 -1.93509e-18)
(0.0772112 4.02161e-17 8.18747e-19)
(0.0769236 1.19875e-17 2.07625e-18)
(0.0765589 2.0203e-17 7.4933e-19)
(0.0761238 1.83788e-17 1.30317e-18)
(0.0756238 1.60899e-17 8.60718e-19)
(0.0750634 9.30308e-18 6.58544e-19)
(0.0744463 1.38293e-17 2.12012e-19)
(0.0737755 1.25607e-17 1.08184e-18)
(0.0730538 1.18038e-17 3.14988e-19)
(0.072283 1.48696e-17 3.51409e-19)
(0.071465 1.56802e-17 -5.63493e-19)
(0.070601 1.83965e-17 -4.83733e-19)
(0.069692 1.63751e-17 6.46073e-19)
(0.0687385 1.55129e-17 -5.77854e-20)
(0.0677407 2.00314e-17 -2.64184e-19)
(0.0666982 2.41836e-17 1.72419e-19)
(0.06561 2.24479e-17 6.233e-19)
(0.0644741 2.35199e-17 -6.56055e-19)
(0.0632869 2.27351e-17 1.26146e-18)
(0.0620437 1.95842e-17 2.12585e-19)
(0.0607414 1.90364e-17 -2.22948e-19)
(0.0593782 1.85519e-17 1.72454e-19)
(0.057951 1.71402e-17 7.02388e-19)
(0.0564546 1.56988e-17 3.75913e-19)
(0.0548832 1.52955e-17 1.38226e-19)
(0.0532324 1.58157e-17 -1.60401e-19)
(0.0514989 1.51532e-17 3.15901e-19)
(0.0496789 1.33946e-17 2.2216e-20)
(0.0477674 1.25271e-17 1.19972e-19)
(0.0457594 1.20175e-17 9.52236e-20)
(0.0436494 1.09899e-17 4.2752e-19)
(0.0414328 1.02358e-17 1.61341e-19)
(0.039106 9.34337e-18 2.49665e-19)
(0.0366673 8.28639e-18 2.05987e-19)
(0.0341179 7.58745e-18 2.15494e-19)
(0.031463 6.65378e-18 2.75555e-19)
(0.0287127 5.71344e-18 2.51527e-19)
(0.0258821 4.9394e-18 2.4797e-19)
(0.0229904 4.30398e-18 1.43975e-19)
(0.0200573 3.55206e-18 1.27807e-19)
(0.0170994 2.75543e-18 1.47876e-19)
(0.0141253 2.07076e-18 1.80201e-19)
(0.0111326 1.40495e-18 1.76195e-19)
(0.00810472 7.96466e-19 1.13688e-19)
(0.00500673 2.77033e-19 -3.59953e-20)
(0.00177533 1.35071e-19 1.01863e-19)
(0.130966 3.31842e-17 -5.32898e-17)
(0.130784 1.13709e-16 1.10185e-17)
(0.130442 8.58807e-17 3.11059e-18)
(0.129957 4.26432e-17 4.60034e-18)
(0.129341 4.96208e-17 1.48759e-18)
(0.128606 4.52124e-17 4.50514e-18)
(0.127761 4.12186e-17 2.63056e-18)
(0.126814 2.94533e-17 1.34549e-18)
(0.125771 3.35235e-17 1.25115e-19)
(0.124637 2.97798e-17 2.38798e-18)
(0.123417 2.67183e-17 -3.79974e-21)
(0.122114 2.86489e-17 9.08784e-19)
(0.120731 2.71564e-17 -1.09679e-18)
(0.119269 2.89505e-17 4.72561e-19)
(0.117731 2.48577e-17 1.17705e-18)
(0.116117 2.26334e-17 1.35041e-19)
(0.114429 2.73603e-17 -6.56735e-19)
(0.112664 3.1911e-17 -5.09228e-19)
(0.110821 2.88858e-17 1.20213e-18)
(0.108898 3.04596e-17 -1.09271e-18)
(0.106887 2.95065e-17 3.05106e-18)
(0.104781 2.51314e-17 9.01843e-19)
(0.102575 2.49024e-17 3.08642e-19)
(0.100265 2.46232e-17 8.96978e-19)
(0.0978467 2.27521e-17 1.9574e-18)
(0.095311 2.0816e-17 1.18417e-18)
(0.0926478 2.02742e-17 1.0103e-18)
(0.0898495 2.09085e-17 3.61938e-19)
(0.0869108 2.01291e-17 1.00396e-18)
(0.0838253 1.79671e-17 6.7986e-19)
(0.0805849 1.70994e-17 5.89323e-19)
(0.0771806 1.65624e-17 8.01636e-19)
(0.0736032 1.51507e-17 1.1599e-18)
(0.0698446 1.40226e-17 8.90428e-19)
(0.0658985 1.27179e-17 1.12299e-18)
(0.0617614 1.12455e-17 1.07968e-18)
(0.0574343 1.02247e-17 1.03995e-18)
(0.052925 8.94676e-18 9.34097e-19)
(0.04825 7.66747e-18 1.04314e-18)
(0.0434348 6.49404e-18 1.05995e-18)
(0.0385128 5.55888e-18 1.06285e-18)
(0.0335205 4.66596e-18 1.00063e-18)
(0.02849 3.67017e-18 9.22308e-19)
(0.0234408 2.6914e-18 9.03347e-19)
(0.018375 1.81532e-18 7.90897e-19)
(0.0132752 1.05901e-18 6.2242e-19)
(0.00810472 3.9336e-19 2.80141e-19)
(0.00280823 1.55453e-19 3.21795e-19)
(0.184303 9.33596e-18 -4.60748e-17)
(0.184053 9.77628e-17 1.52939e-17)
(0.183582 9.45706e-17 5.29126e-18)
(0.182913 4.86916e-17 8.3445e-18)
(0.182064 5.69633e-17 2.2255e-18)
(0.181051 5.20715e-17 6.38291e-18)
(0.179885 4.78475e-17 5.02964e-18)
(0.178578 3.40585e-17 2.03191e-18)
(0.177137 3.85674e-17 -5.15065e-19)
(0.175569 3.38135e-17 3.21474e-18)
(0.17388 2.96445e-17 -4.87771e-19)
(0.172075 3.11261e-17 1.26759e-18)
(0.170156 2.89322e-17 -2.35064e-18)
(0.168128 3.07009e-17 1.83708e-18)
(0.165992 2.54503e-17 9.68573e-19)
(0.163748 2.27211e-17 -6.29769e-19)
(0.161397 2.76354e-17 -1.96085e-18)
(0.158938 3.30246e-17 -2.47473e-18)
(0.156369 2.98599e-17 -3.43217e-19)
(0.153684 3.20529e-17 -1.63288e-18)
(0.150876 3.1131e-17 3.25792e-18)
(0.147932 2.59273e-17 1.31213e-18)
(0.144844 2.61489e-17 5.88953e-19)
(0.141609 2.63594e-17 1.13414e-18)
(0.138219 2.43056e-17 2.78588e-18)
(0.134662 2.20359e-17 2.09342e-18)
(0.130923 2.13982e-17 1.58649e-18)
(0.12699 2.22206e-17 6.14425e-19)
(0.122857 2.16838e-17 1.6823e-18)
(0.118514 1.93935e-17 1.74873e-18)
(0.113949 1.85599e-17 1.18317e-18)
(0.109151 1.79107e-17 1.69629e-18)
(0.104104 1.63801e-17 1.41344e-18)
(0.0987966 1.53144e-17 1.19459e-18)
(0.0932193 1.39451e-17 1.30149e-18)
(0.0873652 1.23177e-17 1.62425e-18)
(0.0812334 1.10059e-17 1.84612e-18)
(0.0748323 9.78349e-18 1.6822e-18)
(0.0681822 8.58121e-18 1.66975e-18)
(0.0613183 7.23856e-18 1.78957e-18)
(0.05429 6.13552e-18 1.7882e-18)
(0.0471554 4.97786e-18 1.82604e-18)
(0.0399699 3.88296e-18 1.61519e-18)
(0.0327728 2.88341e-18 1.50239e-18)
(0.0255782 1.94221e-18 1.31752e-18)
(0.018375 1.15152e-18 1.05831e-18)
(0.0111326 4.15897e-19 5.24688e-19)
(0.00380883 1.80991e-19 5.45079e-19)
(0.233658 -1.47763e-17 -6.24302e-17)
(0.233358 6.63796e-17 1.60298e-17)
(0.23279 8.33965e-17 5.17328e-18)
(0.231983 4.16641e-17 1.13231e-17)
(0.230959 5.20202e-17 3.61997e-18)
(0.229736 4.82823e-17 7.87267e-18)
(0.228327 4.45981e-17 5.72941e-18)
(0.226745 3.07152e-17 2.87541e-18)
(0.224999 3.59859e-17 -1.12705e-18)
(0.223096 3.1176e-17 4.45817e-18)
(0.221044 2.65994e-17 2.40691e-19)
(0.218846 2.77444e-17 2.35279e-18)
(0.216507 2.56267e-17 -8.80597e-19)
(0.214029 2.74524e-17 2.64427e-18)
(0.211415 2.17868e-17 6.81877e-19)
(0.208664 1.93895e-17 -7.60321e-19)
(0.205776 2.41483e-17 -3.02516e-18)
(0.202751 3.01114e-17 -3.61173e-18)
(0.199583 2.77136e-17 -2.03507e-18)
(0.196266 3.03791e-17 -2.46932e-18)
(0.192792 2.97717e-17 1.48019e-18)
(0.189144 2.4365e-17 2.14527e-18)
(0.18531 2.4493e-17 1.77227e-18)
(0.181287 2.52375e-17 1.32755e-18)
(0.177065 2.33572e-17 2.45157e-18)
(0.172628 2.10078e-17 1.37296e-18)
(0.167954 2.03749e-17 9.34234e-19)
(0.163028 2.13823e-17 1.03276e-18)
(0.157841 2.11873e-17 2.49095e-18)
(0.152382 1.87464e-17 3.10823e-18)
(0.146633 1.8e-17 2.38397e-18)
(0.140577 1.74153e-17 2.52056e-18)
(0.134195 1.59441e-17 2.17396e-18)
(0.12747 1.49544e-17 1.9478e-18)
(0.120384 1.38398e-17 1.86468e-18)
(0.112926 1.26046e-17 2.28177e-18)
(0.105088 1.12527e-17 2.31221e-18)
(0.0968744 9.77944e-18 2.59022e-18)
(0.0883022 8.61148e-18 2.32922e-18)
(0.0794105 7.40732e-18 2.4321e-18)
(0.0702627 6.27351e-18 2.35013e-18)
(0.0609441 5.07403e-18 2.34685e-18)
(0.0515459 3.97294e-18 2.22423e-18)
(0.0421423 2.99915e-18 1.98309e-18)
(0.0327728 2.01442e-18 1.82574e-18)
(0.0234408 1.16914e-18 1.39239e-18)
(0.0141253 3.92485e-19 6.49576e-19)
(0.00479444 1.86709e-19 7.21039e-19)
(0.275886 -3.13261e-17 -7.47625e-17)
(0.275552 3.60875e-17 1.33505e-17)
(0.274921 6.47174e-17 6.18974e-18)
(0.274025 3.01247e-17 1.3881e-17)
(0.272886 4.21059e-17 5.65809e-18)
(0.271524 3.98475e-17 9.29101e-18)
(0.269954 3.7261e-17 5.09572e-18)
(0.268189 2.44298e-17 4.81023e-18)
(0.266238 3.02599e-17 -2.63474e-18)
(0.264109 2.60878e-17 6.46231e-18)
(0.261809 2.11009e-17 3.55313e-18)
(0.259341 2.23017e-17 1.98043e-18)
(0.256711 2.04706e-17 1.01047e-18)
(0.253919 2.21016e-17 2.04048e-18)
(0.250967 1.70404e-17 6.58596e-19)
(0.247856 1.50115e-17 -5.52261e-20)
(0.244583 1.93075e-17 -3.83258e-18)
(0.241147 2.55606e-17 -4.85068e-18)
(0.237542 2.40685e-17 -2.66612e-18)
(0.233763 2.7023e-17 -3.19527e-18)
(0.229798 2.72355e-17 -2.32462e-19)
(0.225628 2.22278e-17 3.12232e-18)
(0.22124 2.13039e-17 1.78482e-18)
(0.21663 2.21587e-17 6.8605e-19)
(0.211784 2.09011e-17 2.23214e-18)
(0.206685 1.8801e-17 9.50172e-20)
(0.201304 1.85627e-17 6.55687e-19)
(0.195623 1.9709e-17 1.6305e-18)
(0.189631 1.96346e-17 2.93834e-18)
(0.183314 1.71951e-17 4.24204e-18)
(0.176651 1.63691e-17 3.21903e-18)
(0.169617 1.60503e-17 3.03402e-18)
(0.162187 1.47448e-17 2.80766e-18)
(0.154339 1.37825e-17 2.27149e-18)
(0.146047 1.28832e-17 2.48211e-18)
(0.137288 1.17533e-17 3.071e-18)
(0.128042 1.06923e-17 3.2764e-18)
(0.118298 9.48774e-18 3.21483e-18)
(0.108056 8.36138e-18 3.09289e-18)
(0.0973412 7.28515e-18 3.24345e-18)
(0.0862146 6.21231e-18 3.08516e-18)
(0.074782 5.16876e-18 3.02165e-18)
(0.0631809 3.91456e-18 3.15281e-18)
(0.0515459 2.91747e-18 2.90055e-18)
(0.0399699 1.95613e-18 2.4736e-18)
(0.02849 1.12233e-18 1.89851e-18)
(0.0170994 4.78e-19 8.26033e-19)
(0.00577226 2.10341e-19 9.46882e-19)
(0.311164 -4.02514e-17 -8.08137e-17)
(0.310805 1.29609e-17 8.9895e-18)
(0.310129 4.56045e-17 5.85773e-18)
(0.309166 1.76559e-17 1.40747e-17)
(0.307941 3.09931e-17 7.2383e-18)
(0.306475 3.0115e-17 1.01853e-17)
(0.304784 2.87122e-17 5.80204e-18)
(0.30288 1.72896e-17 7.19397e-18)
(0.300773 2.36485e-17 5.04921e-19)
(0.29847 2.09772e-17 9.98346e-18)
(0.295977 1.47768e-17 9.38904e-18)
(0.2933 1.60978e-17 2.14272e-18)
(0.29044 1.51001e-17 1.79277e-18)
(0.2874 1.64369e-17 -2.16764e-18)
(0.284179 1.25885e-17 2.51679e-19)
(0.280778 1.07045e-17 9.90409e-21)
(0.277195 1.43228e-17 -3.97809e-18)
(0.273426 2.09766e-17 -5.94349e-18)
(0.269467 2.02691e-17 -2.72716e-18)
(0.265309 2.30509e-17 -4.1431e-18)
(0.260946 2.44312e-17 -6.31348e-19)
(0.256367 1.95248e-17 1.36126e-18)
(0.251559 1.77037e-17 1.43143e-18)
(0.246506 1.93924e-17 -5.31494e-19)
(0.241194 1.78692e-17 2.71199e-18)
(0.235603 1.61659e-17 -7.79697e-19)
(0.229701 1.6793e-17 1.96934e-18)
(0.223465 1.74246e-17 2.46619e-18)
(0.216888 1.75541e-17 2.62121e-18)
(0.209951 1.52339e-17 4.48879e-18)
(0.202632 1.41346e-17 3.43798e-18)
(0.194901 1.40079e-17 1.68247e-18)
(0.186731 1.28155e-17 1.85661e-18)
(0.178092 1.22535e-17 1.54081e-18)
(0.168952 1.19532e-17 2.54357e-18)
(0.159279 1.12066e-17 3.60895e-18)
(0.149035 9.86867e-18 4.2326e-18)
(0.138186 8.60219e-18 3.96527e-18)
(0.126702 7.86853e-18 3.99074e-18)
(0.114563 6.89864e-18 4.46102e-18)
(0.10179 5.87861e-18 3.87634e-18)
(0.0884722 5.16216e-18 3.85874e-18)
(0.074782 3.93694e-18 3.82551e-18)
(0.0609441 2.53803e-18 3.50771e-18)
(0.0471554 1.65873e-18 3.12696e-18)
(0.0335205 1.05393e-18 2.6305e-18)
(0.0200573 3.75582e-19 1.1955e-18)
(0.00674384 2.11713e-19 1.28116e-18)
(0.340937 -4.31362e-17 -7.96271e-17)
(0.340558 -3.03258e-18 5.20298e-18)
(0.339842 2.8658e-17 6.76028e-18)
(0.338823 6.99534e-18 1.19407e-17)
(0.337526 2.10069e-17 9.84679e-18)
(0.335972 2.12313e-17 1.1055e-17)
(0.334177 2.08316e-17 6.67635e-18)
(0.332153 1.13383e-17 6.11456e-18)
(0.32991 1.74658e-17 3.29523e-18)
(0.327456 1.57357e-17 1.11891e-17)
(0.324795 8.6004e-18 1.22803e-17)
(0.321932 9.66894e-18 3.16636e-18)
(0.318869 9.31546e-18 5.34459e-19)
(0.315607 1.14152e-17 -3.90331e-18)
(0.312146 9.54542e-18 -9.25511e-19)
(0.308485 7.26758e-18 -4.34313e-19)
(0.304622 1.00074e-17 -4.85932e-18)
(0.300553 1.66416e-17 -6.3847e-18)
(0.296274 1.65465e-17 -4.98986e-18)
(0.291776 1.95467e-17 -5.48455e-18)
(0.287055 2.12423e-17 -1.97071e-18)
(0.282108 1.71965e-17 -1.32339e-18)
(0.276921 1.48201e-17 1.73207e-18)
(0.271475 1.65028e-17 -1.18166e-18)
(0.265753 1.52418e-17 2.07637e-18)
(0.259741 1.39454e-17 -1.15294e-18)
(0.253413 1.51737e-17 2.59032e-18)
(0.246746 1.46007e-17 1.97585e-18)
(0.239724 1.52084e-17 1.73605e-18)
(0.232328 1.34731e-17 2.95504e-18)
(0.224531 1.14271e-17 2.44526e-18)
(0.216307 1.15883e-17 5.33447e-19)
(0.207623 1.13291e-17 1.85925e-18)
(0.198449 1.12991e-17 2.34217e-18)
(0.18875 1.14807e-17 3.08617e-18)
(0.178486 1.04387e-17 3.88219e-18)
(0.167605 8.90287e-18 4.44268e-18)
(0.156055 7.78815e-18 4.27388e-18)
(0.143766 7.52674e-18 4.30136e-18)
(0.130657 6.33103e-18 4.61959e-18)
(0.11666 5.20147e-18 4.48269e-18)
(0.10179 4.83396e-18 4.03811e-18)
(0.0862146 3.52371e-18 3.86265e-18)
(0.0702627 2.45247e-18 3.73482e-18)
(0.05429 1.87735e-18 3.51848e-18)
(0.0385128 9.87315e-19 2.97013e-18)
(0.0229904 1.92236e-19 1.39598e-18)
(0.00770683 2.20617e-19 1.53078e-18)
(0.366374 -4.25553e-17 -7.61164e-17)
(0.365977 -1.27161e-17 7.90755e-19)
(0.365227 1.52577e-17 6.89427e-18)
(0.364158 -1.57165e-18 1.10985e-17)
(0.362797 1.28099e-17 1.30014e-17)
(0.361165 1.3358e-17 1.1931e-17)
(0.359276 1.34357e-17 7.29044e-18)
(0.357145 6.09015e-18 5.2648e-18)
(0.354779 1.24648e-17 4.03152e-18)
(0.352187 1.13424e-17 7.48838e-18)
(0.349372 3.69073e-18 7.33722e-18)
(0.346339 4.04735e-18 2.18642e-18)
(0.343089 4.85225e-18 -3.37996e-18)
(0.339623 7.42044e-18 -3.96565e-18)
(0.33594 6.51394e-18 -1.1504e-18)
(0.332039 4.18734e-18 -6.4455e-19)
(0.327917 6.47409e-18 -6.25656e-18)
(0.323572 1.26613e-17 -8.41976e-18)
(0.318999 1.30625e-17 -6.70338e-18)
(0.314192 1.6524e-17 -7.20557e-18)
(0.309145 1.82948e-17 -3.09972e-18)
(0.303856 1.55718e-17 -4.4842e-19)
(0.298314 1.2867e-17 1.14184e-18)
(0.2925 1.38732e-17 1.2213e-18)
(0.286405 1.2692e-17 1.73675e-18)
(0.280016 1.22945e-17 -1.19231e-18)
(0.273317 1.33946e-17 -1.3881e-18)
(0.266294 1.18343e-17 1.47984e-19)
(0.258921 1.29802e-17 9.9129e-19)
(0.251173 1.18927e-17 2.43024e-18)
(0.243025 9.80051e-18 2.57478e-18)
(0.234448 1.04666e-17 2.13531e-18)
(0.225409 1.09272e-17 2.85813e-18)
(0.215879 1.00825e-17 3.874e-18)
(0.205824 1.00372e-17 3.90466e-18)
(0.195199 9.47108e-18 3.79712e-18)
(0.183945 7.94814e-18 4.60813e-18)
(0.171984 6.8452e-18 4.35203e-18)
(0.159222 6.70953e-18 4.06103e-18)
(0.14551 6.05401e-18 4.32658e-18)
(0.130657 4.77291e-18 4.41265e-18)
(0.114563 4.31228e-18 4.20981e-18)
(0.0973412 3.7491e-18 4.10441e-18)
(0.0794105 2.67641e-18 4.30336e-18)
(0.0613183 1.956e-18 4.03424e-18)
(0.0434348 1.10583e-18 3.2533e-18)
(0.0258821 2.14681e-19 1.48584e-18)
(0.00865616 1.89063e-19 1.77317e-18)
(0.388391 -3.98258e-17 -7.33752e-17)
(0.387977 -1.83042e-17 -3.49002e-18)
(0.387194 5.35943e-18 1.27022e-19)
(0.386078 -7.52779e-18 1.19716e-17)
(0.384656 6.20982e-18 1.54031e-17)
(0.382948 6.83938e-18 1.29372e-17)
(0.38097 7.53911e-18 7.00447e-18)
(0.378735 1.95692e-18 9.6522e-18)
(0.376251 7.18063e-18 6.2119e-18)
(0.373525 6.16719e-18 6.1744e-18)
(0.370561 1.98953e-19 2.50172e-18)
(0.367363 -1.28887e-19 1.02719e-18)
(0.363931 1.11135e-18 -7.29015e-18)
(0.360266 5.06155e-18 -5.4136e-18)
(0.356367 4.4185e-18 -1.10293e-18)
(0.352235 1.357e-18 -2.18238e-18)
(0.347865 3.00018e-18 -4.55356e-18)
(0.343257 9.58716e-18 -7.88598e-18)
(0.338408 1.0397e-17 -5.66978e-18)
(0.333311 1.41334e-17 -7.59531e-18)
(0.327963 1.67498e-17 -4.41816e-18)
(0.322365 1.34659e-17 1.42352e-18)
(0.316507 1.13742e-17 -6.65805e-19)
(0.310372 1.20809e-17 -4.94126e-19)
(0.303959 9.61723e-18 -1.20409e-18)
(0.297261 8.75921e-18 -1.2817e-18)
(0.290265 1.12947e-17 -2.66676e-18)
(0.282956 1.15134e-17 -3.90059e-19)
(0.275309 1.23107e-17 1.41301e-18)
(0.267295 1.10878e-17 1.82896e-18)
(0.258891 8.78053e-18 3.10776e-18)
(0.250072 9.10975e-18 4.34632e-18)
(0.240814 9.62027e-18 3.90744e-18)
(0.231084 9.10945e-18 4.4328e-18)
(0.22084 8.53868e-18 4.79997e-18)
(0.210029 8.4094e-18 4.83785e-18)
(0.198579 7.29339e-18 4.74107e-18)
(0.186385 5.77503e-18 4.05679e-18)
(0.173325 6.12835e-18 3.60773e-18)
(0.159222 5.71274e-18 4.11524e-18)
(0.143766 4.55765e-18 4.2283e-18)
(0.126702 4.22688e-18 4.77686e-18)
(0.108056 3.6457e-18 4.7984e-18)
(0.0883022 2.91382e-18 4.90999e-18)
(0.0681822 2.03873e-18 4.82343e-18)
(0.04825 1.09579e-18 3.91631e-18)
(0.0287126 2.18141e-19 1.76062e-18)
(0.00958557 1.79595e-19 2.15696e-18)
(0.407706 -3.60254e-17 -7.15578e-17)
(0.407274 -2.14618e-17 -5.09255e-18)
(0.406459 -1.41293e-18 -4.08888e-18)
(0.405295 -1.07656e-17 1.64963e-17)
(0.403811 8.25048e-19 1.43332e-17)
(0.402027 9.77357e-19 1.43886e-17)
(0.399959 3.10927e-18 7.32082e-18)
(0.397619 -1.29979e-18 1.17252e-17)
(0.395015 2.53696e-18 8.40469e-18)
(0.392154 1.66253e-18 5.41647e-18)
(0.389039 -3.09049e-18 2.68151e-18)
(0.385672 -3.68925e-18 1.40492e-18)
(0.382057 -1.95546e-18 -4.46521e-18)
(0.378193 3.46054e-18 -6.74388e-18)
(0.37408 2.28554e-18 -6.45549e-19)
(0.369719 -2.7857e-19 -3.95471e-18)
(0.365108 1.21855e-18 -2.60822e-18)
(0.360246 6.72116e-18 -4.73851e-18)
(0.355137 7.57135e-18 -5.49466e-18)
(0.349775 1.08639e-17 -6.51583e-18)
(0.344156 1.52402e-17 -6.68242e-18)
(0.338285 1.17894e-17 -2.97373e-18)
(0.332159 8.46043e-18 -4.23602e-18)
(0.325771 9.74437e-18 -5.14262e-18)
(0.319111 8.85636e-18 -4.2202e-18)
(0.312173 8.42755e-18 -6.28283e-20)
(0.304951 9.90603e-18 9.83326e-19)
(0.297424 1.04322e-17 5.3391e-19)
(0.289569 1.0724e-17 5.92081e-19)
(0.281366 1.00021e-17 1.9709e-19)
(0.272796 9.1559e-18 3.07562e-18)
(0.26384 8.61859e-18 4.74295e-18)
(0.254474 8.33042e-18 4.88237e-18)
(0.244659 8.05355e-18 5.23937e-18)
(0.234346 7.6876e-18 5.32668e-18)
(0.223473 6.95948e-18 5.37584e-18)
(0.21195 5.52548e-18 4.48865e-18)
(0.199637 4.57546e-18 4.25882e-18)
(0.186385 5.63311e-18 3.95789e-18)
(0.171984 5.89129e-18 4.39869e-18)
(0.156055 5.02166e-18 4.52891e-18)
(0.138186 4.42643e-18 5.0261e-18)
(0.118298 3.64275e-18 5.42805e-18)
(0.0968744 3.01228e-18 5.67925e-18)
(0.0748323 2.09684e-18 5.55829e-18)
(0.052925 1.09974e-18 4.6187e-18)
(0.031463 3.29682e-19 2.07742e-18)
(0.0104889 2.00804e-19 2.58908e-18)
(0.424866 -3.11574e-17 -6.88015e-17)
(0.424417 -2.20486e-17 -7.33562e-18)
(0.423568 -5.6509e-18 -5.27106e-18)
(0.422355 -1.35853e-17 1.66031e-17)
(0.420806 -4.15459e-18 1.06928e-17)
(0.418943 -3.11965e-18 1.48569e-17)
(0.41678 -9.50551e-19 8.31163e-18)
(0.414331 -3.77531e-18 8.81507e-18)
(0.411602 -1.75693e-18 9.0295e-18)
(0.408599 -2.4423e-18 5.29404e-18)
(0.405327 -5.06805e-18 7.77281e-18)
(0.401789 -5.58396e-18 1.8015e-18)
(0.397986 -5.13186e-18 -9.51352e-19)
(0.393922 1.28553e-18 -7.81615e-18)
(0.389594 8.2093e-19 -1.84983e-18)
(0.385011 -1.84139e-18 -4.68397e-18)
(0.38017 1.54263e-19 -5.19111e-18)
(0.375073 3.94728e-18 -4.53498e-18)
(0.369728 5.08747e-18 -5.43044e-18)
(0.364137 8.08666e-18 -4.12827e-18)
(0.358298 1.18328e-17 -6.7871e-18)
(0.35221 9.64049e-18 -8.36821e-18)
(0.345872 7.43504e-18 -7.13037e-18)
(0.339284 8.95841e-18 -4.63422e-18)
(0.332433 9.43607e-18 -3.86177e-18)
(0.325313 8.94954e-18 -4.55567e-19)
(0.317915 8.28404e-18 3.14371e-18)
(0.310226 7.98509e-18 1.86619e-18)
(0.302227 8.9819e-18 8.39808e-19)
(0.293908 9.98467e-18 1.33736e-18)
(0.285255 9.54636e-18 4.18095e-18)
(0.276246 8.05254e-18 5.08827e-18)
(0.26685 7.52892e-18 4.9975e-18)
(0.257022 7.03815e-18 5.61022e-18)
(0.246706 6.34552e-18 5.50216e-18)
(0.23583 5.68893e-18 5.04384e-18)
(0.224298 5.05478e-18 5.34538e-18)
(0.21195 4.519e-18 5.09196e-18)
(0.198579 5.49993e-18 5.22125e-18)
(0.183945 5.46374e-18 5.29956e-18)
(0.167605 4.52831e-18 5.25543e-18)
(0.149035 4.62254e-18 5.49007e-18)
(0.128042 3.92266e-18 5.95968e-18)
(0.105088 3.04225e-18 6.27304e-18)
(0.0812334 1.90256e-18 6.08933e-18)
(0.0574343 9.54082e-19 4.96936e-18)
(0.0341179 3.46009e-20 2.06163e-18)
(0.0113612 1.39792e-19 2.7591e-18)
(0.440287 -2.64985e-17 -6.51074e-17)
(0.439819 -2.13642e-17 -1.45497e-17)
(0.438933 -8.66428e-18 -5.78595e-18)
(0.437667 -1.55109e-17 1.41513e-17)
(0.43605 -7.5936e-18 5.92625e-18)
(0.434102 -6.33567e-18 1.08322e-17)
(0.43184 -4.82856e-18 8.07852e-18)
(0.429274 -6.20937e-18 7.15997e-18)
(0.426412 -4.36579e-18 8.1462e-18)
(0.423262 -4.21827e-18 4.52819e-18)
(0.419827 -7.31395e-18 8.76854e-18)
(0.416112 -8.45805e-18 1.46539e-18)
(0.412119 -7.79301e-18 -7.37101e-19)
(0.407859 -1.09159e-18 -7.06927e-18)
(0.403325 -4.14287e-19 -7.38853e-18)
(0.398534 -3.56897e-18 -8.05118e-18)
(0.393493 -1.0055e-18 -8.14008e-18)
(0.388202 2.83657e-18 -5.42411e-18)
(0.382664 4.04498e-18 -5.15381e-18)
(0.376887 5.65051e-18 -5.25887e-18)
(0.37087 7.49824e-18 -6.27468e-18)
(0.364609 7.38218e-18 -9.16126e-18)
(0.358103 7.99126e-18 -8.03935e-18)
(0.351351 8.59252e-18 -5.08426e-18)
(0.344348 8.22653e-18 -3.89424e-18)
(0.337087 9.85111e-18 -2.74443e-18)
(0.329562 8.41009e-18 1.78607e-18)
(0.321761 6.18652e-18 2.74296e-18)
(0.313681 7.67399e-18 3.63347e-18)
(0.305312 9.54454e-18 2.62618e-18)
(0.296639 9.28081e-18 5.39903e-18)
(0.287632 6.99633e-18 6.21117e-18)
(0.278256 6.63259e-18 5.10581e-18)
(0.268461 6.37633e-18 5.62669e-18)
(0.258185 5.3002e-18 6.00332e-18)
(0.247345 5.40808e-18 5.10222e-18)
(0.23583 4.50984e-18 5.29575e-18)
(0.223473 3.63809e-18 4.75124e-18)
(0.210029 4.86346e-18 4.63481e-18)
(0.195199 4.77759e-18 4.50153e-18)
(0.178486 4.13176e-18 5.19993e-18)
(0.159279 4.36931e-18 5.52104e-18)
(0.137288 3.75977e-18 6.01545e-18)
(0.112926 2.99149e-18 6.15844e-18)
(0.0873652 1.73769e-18 5.96185e-18)
(0.0617614 7.62468e-19 4.77343e-18)
(0.0366673 6.03768e-20 1.65035e-18)
(0.012199 6.34541e-20 2.76761e-18)
(0.454281 -2.26414e-17 -6.00656e-17)
(0.453793 -1.95985e-17 -2.21119e-17)
(0.452868 -9.46697e-18 -4.67762e-18)
(0.451545 -1.78219e-17 1.3868e-17)
(0.449854 -1.14259e-17 2.66198e-19)
(0.447815 -8.13991e-18 3.1277e-18)
(0.445445 -7.13554e-18 7.9053e-18)
(0.442756 -8.18892e-18 9.53569e-18)
(0.439755 -7.44904e-18 6.29861e-18)
(0.436451 -6.75946e-18 3.89492e-18)
(0.432849 -8.4657e-18 2.33002e-18)
(0.428959 -9.67867e-18 5.4018e-18)
(0.424784 -9.78986e-18 -4.24653e-20)
(0.42034 -4.71423e-18 -5.84998e-18)
(0.415635 -2.66217e-18 -1.17854e-17)
(0.410673 -3.84407e-18 -1.01876e-17)
(0.405465 -9.11125e-19 -9.21289e-18)
(0.400014 1.95047e-18 -5.50707e-18)
(0.394319 2.1313e-18 -5.13688e-18)
(0.388386 3.89242e-18 -8.12598e-18)
(0.382216 5.25373e-18 -6.54118e-18)
(0.375808 5.2772e-18 -9.13696e-18)
(0.369164 7.18374e-18 -8.37314e-18)
(0.362284 8.26971e-18 -5.94599e-18)
(0.355165 7.65544e-18 -4.85812e-18)
(0.347803 9.66039e-18 -5.31902e-18)
(0.340193 9.25326e-18 -3.07546e-18)
(0.332337 6.97585e-18 3.29827e-18)
(0.324231 6.38794e-18 4.79394e-18)
(0.315861 8.56824e-18 4.066e-18)
(0.307207 9.71442e-18 4.33577e-18)
(0.298237 5.7808e-18 4.64079e-18)
(0.288912 5.17749e-18 4.33276e-18)
(0.279178 6.06157e-18 3.50019e-18)
(0.268967 4.3062e-18 3.62969e-18)
(0.258185 3.67093e-18 3.98161e-18)
(0.246706 3.58375e-18 3.9663e-18)
(0.234346 3.07454e-18 3.92492e-18)
(0.22084 4.41194e-18 3.90449e-18)
(0.205824 5.27784e-18 3.9434e-18)
(0.18875 4.92568e-18 4.94851e-18)
(0.168952 4.77697e-18 5.5365e-18)
(0.146047 4.13321e-18 5.89659e-18)
(0.120384 3.11339e-18 6.0963e-18)
(0.0932193 2.13582e-18 5.77814e-18)
(0.0658985 9.52998e-19 4.54614e-18)
(0.039106 6.96594e-20 1.42213e-18)
(0.0130005 7.87567e-20 3.00807e-18)
(0.467088 -1.98154e-17 -4.78978e-17)
(0.466577 -1.76328e-17 -2.19846e-17)
(0.465609 -9.09477e-18 -3.87741e-18)
(0.464224 -1.99586e-17 7.85413e-18)
(0.462453 -1.5381e-17 5.6823e-19)
(0.460317 -9.15944e-18 5.99835e-19)
(0.457832 -7.47198e-18 8.86226e-18)
(0.455013 -1.0667e-17 1.10146e-17)
(0.451868 -1.02272e-17 4.10334e-18)
(0.44841 -9.21067e-18 5.66126e-18)
(0.444647 -8.51106e-18 -7.36569e-19)
(0.440596 -9.71995e-18 6.38216e-18)
(0.436269 -1.28145e-17 2.45706e-18)
(0.431674 -8.32644e-18 -5.78398e-18)
(0.426825 -4.46453e-18 -1.2513e-17)
(0.42172 -4.14887e-18 -9.09396e-18)
(0.416368 -1.11683e-18 -1.09894e-17)
(0.410774 1.66011e-18 -2.69605e-18)
(0.404941 3.07346e-19 -5.38354e-18)
(0.398873 2.21242e-18 -9.18283e-18)
(0.392576 3.40596e-18 -9.32443e-18)
(0.386049 3.43965e-18 -9.34474e-18)
(0.379297 7.02781e-18 -7.87642e-18)
(0.372321 7.46142e-18 -5.87259e-18)
(0.365121 5.51893e-18 -5.73333e-18)
(0.357696 8.22574e-18 -4.24136e-18)
(0.350051 1.18796e-17 -5.12948e-18)
(0.342186 9.49482e-18 1.19151e-18)
(0.334092 5.79883e-18 2.50207e-18)
(0.325752 6.54838e-18 3.87481e-18)
(0.317142 7.28897e-18 2.27782e-18)
(0.30823 5.27756e-18 1.94024e-18)
(0.298973 4.21352e-18 3.15407e-18)
(0.289314 4.34211e-18 2.24499e-18)
(0.279178 4.59857e-18 1.86988e-18)
(0.268461 4.68709e-18 3.52014e-18)
(0.257022 3.56257e-18 3.72479e-18)
(0.244659 3.05486e-18 4.53307e-18)
(0.231084 4.18158e-18 5.12774e-18)
(0.215879 5.27782e-18 5.79907e-18)
(0.198449 5.36944e-18 6.39725e-18)
(0.178092 4.52719e-18 6.79499e-18)
(0.154339 4.16668e-18 6.33475e-18)
(0.12747 3.35613e-18 6.58489e-18)
(0.0987966 2.06945e-18 6.2826e-18)
(0.0698446 1.141e-18 4.83922e-18)
(0.0414328 5.21158e-19 1.43388e-18)
(0.0137653 1.01685e-19 3.17391e-18)
(0.478887 -1.82511e-17 -3.85496e-17)
(0.478352 -1.72828e-17 -1.83301e-17)
(0.477337 -9.97224e-18 -3.34806e-18)
(0.475886 -2.09565e-17 3.44584e-18)
(0.474029 -1.72701e-17 1.75392e-18)
(0.471789 -1.02785e-17 1.50803e-18)
(0.469185 -8.14364e-18 1.09339e-17)
(0.466234 -1.31929e-17 1.13731e-17)
(0.462947 -1.2559e-17 3.99258e-18)
(0.459346 -1.14067e-17 5.47933e-18)
(0.455448 -9.60978e-18 3.4852e-19)
(0.451264 -8.86922e-18 8.54037e-19)
(0.446809 -1.47953e-17 1.27854e-18)
(0.442086 -1.24253e-17 -7.73245e-18)
(0.437105 -5.77734e-18 -1.30112e-17)
(0.43187 -4.94046e-18 -1.01229e-17)
(0.42639 -2.78352e-20 -1.37592e-17)
(0.420671 1.81298e-18 -3.36992e-18)
(0.414718 -2.92176e-18 -7.56123e-18)
(0.408539 -3.40481e-19 -1.03012e-17)
(0.402139 2.39127e-18 -1.44219e-17)
(0.395521 3.30188e-18 -9.38757e-18)
(0.38869 6.13198e-18 -6.76385e-18)
(0.381649 6.25171e-18 -5.37117e-18)
(0.374402 5.86965e-18 -2.55952e-18)
(0.366957 7.33042e-18 -4.82119e-19)
(0.359318 1.05764e-17 -1.01509e-18)
(0.351475 1.0092e-17 -7.74485e-20)
(0.343417 6.2968e-18 1.81536e-18)
(0.335126 6.11581e-18 3.16019e-18)
(0.326575 6.11158e-18 2.4186e-18)
(0.317733 5.23007e-18 1.80805e-18)
(0.308552 4.23538e-18 3.32913e-18)
(0.298973 3.6741e-18 2.69405e-18)
(0.288912 4.62169e-18 2.32221e-18)
(0.278256 4.69488e-18 2.81858e-18)
(0.26685 3.81078e-18 3.69433e-18)
(0.254474 3.65498e-18 5.80293e-18)
(0.240814 4.36661e-18 6.80696e-18)
(0.225409 4.96935e-18 7.69386e-18)
(0.207623 4.28237e-18 7.92885e-18)
(0.186731 3.11355e-18 8.40492e-18)
(0.162187 3.45944e-18 8.29852e-18)
(0.134195 3.75141e-18 7.97749e-18)
(0.104104 2.47719e-18 7.66217e-18)
(0.0736032 1.25917e-18 6.14906e-18)
(0.0436493 5.26449e-19 2.19764e-18)
(0.014494 1.12749e-19 3.53668e-18)
(0.489819 -1.65253e-17 -4.47043e-17)
(0.489257 -1.64178e-17 -2.11996e-17)
(0.488192 -1.02123e-17 -7.29516e-18)
(0.486669 -2.17715e-17 2.26089e-18)
(0.484722 -1.92294e-17 1.26595e-18)
(0.482375 -1.05551e-17 1.28904e-18)
(0.479652 -8.2672e-18 1.11585e-17)
(0.476575 -1.59012e-17 1.02047e-17)
(0.473168 -1.49418e-17 5.9588e-18)
(0.469449 -1.3033e-17 5.33203e-18)
(0.465437 -1.15418e-17 -1.54075e-18)
(0.461139 -9.72886e-18 -2.90625e-18)
(0.456565 -1.63544e-17 -6.14595e-19)
(0.451722 -1.49836e-17 -9.4532e-18)
(0.446622 -6.84241e-18 -1.03185e-17)
(0.441271 -6.26186e-18 -1.20313e-17)
(0.435678 9.77803e-21 -1.26601e-17)
(0.429853 2.09653e-18 -6.88035e-18)
(0.423802 -4.45513e-18 -9.22356e-18)
(0.417535 -3.23256e-18 -1.22186e-17)
(0.411056 1.60961e-18 -1.69043e-17)
(0.404373 5.11747e-18 -1.07871e-17)
(0.39749 6.31974e-18 -5.25057e-18)
(0.390418 6.96239e-18 -2.68038e-18)
(0.383164 5.97927e-18 7.9065e-19)
(0.375734 6.70087e-18 -1.08553e-18)
(0.368123 9.44564e-18 2.30295e-18)
(0.360322 9.00392e-18 1.45807e-18)
(0.352315 6.36875e-18 3.66108e-18)
(0.344085 5.15329e-18 7.09582e-18)
(0.335604 4.43183e-18 4.33269e-18)
(0.326836 4.87888e-18 1.91874e-18)
(0.317733 3.81972e-18 1.94754e-18)
(0.30823 2.16952e-18 2.06561e-18)
(0.298237 3.50645e-18 2.09527e-18)
(0.287632 5.02562e-18 3.47311e-18)
(0.276246 5.68465e-18 4.41846e-18)
(0.26384 4.98095e-18 6.3651e-18)
(0.250072 4.1972e-18 7.55087e-18)
(0.234448 4.02064e-18 8.01496e-18)
(0.216307 3.63527e-18 8.68181e-18)
(0.194901 3.18583e-18 9.26552e-18)
(0.169617 2.47729e-18 1.00682e-17)
(0.140577 2.59266e-18 9.6539e-18)
(0.109151 2.3007e-18 9.17951e-18)
(0.0771806 1.1583e-18 7.46808e-18)
(0.0457593 2.27328e-19 3.14916e-18)
(0.0151875 1.63308e-19 4.04992e-18)
(0.499988 -1.41831e-17 -5.25582e-17)
(0.499398 -1.46321e-17 -1.97416e-17)
(0.498282 -9.4025e-18 -1.09464e-17)
(0.496684 -2.10411e-17 3.76569e-18)
(0.494647 -2.033e-17 2.76643e-18)
(0.492196 -1.09425e-17 7.85419e-19)