/*--------------------------------*- C++ -*----------------------------------*\
| =========                 |                                                 |
| \\      /  F ield         | OpenFOAM: The Open Source CFD Toolbox           |
|  \\    /   O peration     | Version:  2112                                  |
|   \\  /    A nd           | Website:  www.openfoam.com                      |
|    \\/     M anipulation  |                                                 |
\*---------------------------------------------------------------------------*/
FoamFile
{
    version     2.0;
    format      ascii;
    arch        "LSB;label=32;scalar=64";
    class       volVectorField;
    location    "1547";
    object      C;
}
// * * * * * * * * * * * * * * * * * * * * * * * * * * * * * * * * * * * * * //

dimensions      [0 1 0 0 0 0 0];

internalField   nonuniform List<vector> 
15600
(
(0.0400330813 1.00195548 -4.50814447e-18)
(0.120088607 1.00097057 4.79601003e-18)
(0.199839192 0.994974861 0)
(0.278076556 0.979069405 0)
(0.35274061 0.950971084 0)
(0.422714026 0.912370272 0)
(0.488707852 0.867147088 -2.56805428e-18)
(0.551974333 0.818142738 4.95914983e-18)
(0.613603058 0.767094346 -1.68846411e-15)
(0.674523082 0.715210637 -1.64411183e-15)
(0.735551626 0.663469941 -6.48283099e-18)
(0.797145456 0.612403622 0)
(0.859328475 0.562047826 -5.85986862e-18)
(0.921992693 0.512286299 -5.51181163e-18)
(0.985025994 0.46298788 0)
(1.04831267 0.414010548 5.18708349e-18)
(1.11179206 0.365280905 1.73169491e-18)
(1.17561824 0.317011137 0)
(1.2401406 0.269681378 -6.13357392e-18)
(1.30575158 0.223881073 0)
(1.37286159 0.180329251 5.70523936e-18)
(1.44188974 0.139918065 -2.62967634e-18)
(1.51311493 0.103542174 0)
(1.58656569 0.0719177843 2.41970732e-18)
(1.66210086 0.0456851366 0)
(1.73945636 0.0254843392 0)
(1.81823279 0.0119003026 -2.05990544e-16)
(1.89789902 0.00537080469 -2.1392004e-16)
(1.97791588 0.00391096442 2.4468193e-18)
(2.05798204 0.00391096804 0)
(2.1380482 0.00391096804 9.63735266e-20)
(2.21811436 0.00391096804 -2.3544614e-16)
(2.29818053 0.00391096804 -2.40045094e-16)
(2.37824669 0.00391096804 0)
(2.45831285 0.00391096804 2.35044576e-18)
(2.53837901 0.00391096804 -2.25407223e-18)
(2.61844518 0.00391096804 2.44681929e-18)
(2.69851134 0.00391096804 0)
(2.7785775 0.00391096804 2.35542514e-16)
(2.85864366 0.00391096804 2.38025781e-16)
(2.93870983 0.00391096804 0)
(3.01877599 0.00391096804 -9.63735266e-20)
(3.09884215 0.00391096804 0)
(3.17890832 0.00391096804 9.63735266e-20)
(3.25897448 0.00391096804 0)
(3.33904064 0.00391096804 0)
(3.4191068 0.00391096804 -2.46909248e-16)
(3.49917297 0.00391096804 -2.49284715e-16)
(3.57923913 0.00391096804 -9.63735266e-20)
(3.65930529 0.00391096804 9.63735266e-20)
(3.73937145 0.00391096804 -2.25407223e-18)
(3.81943762 0.00391096804 4.60451799e-18)
(3.89950378 0.00391096804 -2.40147032e-16)
(3.97956994 0.00391096804 -2.28894969e-16)
(4.05963611 0.00391096804 2.25407223e-18)
(4.13970227 0.00391096804 -2.35044576e-18)
(4.21976843 0.00391096804 -2.35044576e-18)
(4.29983459 0.00391096804 -4.70089152e-18)
(4.37990076 0.00391096804 0)
(4.45996692 0.00391096804 0)
(4.54003308 0.00391096804 0)
(4.62009924 0.00391096804 0)
(4.70016541 0.00391096804 4.60451799e-18)
(4.78023157 0.00391096804 0)
(4.86029773 0.00391096804 2.35044576e-18)
(4.94036389 0.00391096804 0)
(5.02043006 0.00391096804 0)
(5.10049622 0.00391096804 -9.63735266e-20)
(5.18056238 0.00391096804 -2.35044576e-18)
(5.26062855 0.00391096804 0)
(5.34069471 0.00391096804 2.35044576e-18)
(5.42076087 0.00391096804 0)
(5.50082703 0.00391096804 2.30937996e-16)
(5.5808932 0.00391096804 4.73048999e-16)
(5.66095936 0.00391096804 2.28865601e-16)
(5.74102552 0.00391096804 0)
(5.82109168 0.00391096804 -9.63735266e-20)
(5.90115785 0.00391096804 4.60451799e-18)
(5.98122401 0.00391096804 0)
(6.06129017 0.00391096804 2.35542514e-16)
(6.14135634 0.00391096804 2.31555871e-16)
(6.2214225 0.00391096804 0)
(6.30148866 0.00391096804 0)
(6.38155482 0.00391096804 -6.95496375e-18)
(6.46162099 0.00391096804 0)
(6.54168715 0.00391096804 0)
(6.62175331 0.00391096804 0)
(6.70181947 0.00391096804 9.63735266e-20)
(6.78188564 0.00391096804 9.63735266e-20)
(6.8619518 0.00391096804 0)
(6.94201796 0.00391096804 -2.35044576e-18)
(7.02208412 0.00391096442 -2.35044577e-18)
(7.10210098 0.00537080469 4.69527511e-18)
(7.18176721 0.0119003026 -2.35437372e-18)
(7.26054364 0.0254843392 4.6752196e-18)
(7.33789914 0.0456851366 2.44070307e-18)
(7.41343431 0.0719177843 -2.41970732e-18)
(7.48688507 0.103542174 5.12794401e-18)
(7.55811026 0.139918065 8.08358458e-18)
(7.62713841 0.180329251 -9.74106626e-20)
(7.69424842 0.223881073 -1.6391194e-18)
(7.7598594 0.269681378 9.7629565e-20)
(7.82438176 0.317011137 0)
(7.88820794 0.365280905 -8.28150653e-18)
(7.95168733 0.414010548 0)
(8.01497401 0.46298788 -3.52601791e-18)
(8.07800731 0.512286299 0)
(8.14067152 0.562047826 0)
(8.20285454 0.612403622 -9.81936354e-20)
(8.26444837 0.663469941 -4.16062254e-18)
(8.32547692 0.715210637 2.34747035e-18)
(8.38639694 0.767094346 4.80621283e-18)
(8.44802567 0.818142738 9.85510282e-20)
(8.51129215 0.867147088 5.04604402e-18)
(8.57728597 0.912370272 2.56155606e-18)
(8.64725939 0.950971084 -4.9829234e-18)
(8.72192344 0.979069405 7.00528186e-18)
(8.80016081 0.994974861 0)
(8.87991139 1.00097057 -4.79648491e-18)
(8.95996692 1.00195548 0)
(0.0400229729 1.00593825 6.71766755e-18)
(0.120058373 1.00495727 0)
(0.1997902 0.998985479 4.55594905e-18)
(0.278014928 0.983143497 2.00679107e-15)
(0.352680607 0.955157331 1.96875584e-15)
(0.422674246 0.916710621 9.69151456e-18)
(0.48870408 0.871667966 -1.90618613e-19)
(0.552017401 0.822859214 1.90530083e-19)
(0.613699471 0.77201455 1.66520614e-15)
(0.674675648 0.720337877 1.54718087e-15)
(0.735759896 0.668803629 2.05270583e-18)
(0.797407176 0.617941066 0)
(0.859641299 0.567786198 1.8527144e-18)
(0.922354705 0.518223233 -5.31410671e-18)
(0.985435727 0.469121532 -1.91181413e-19)
(1.04876912 0.420339639 8.37437261e-18)
(1.11229446 0.371804448 -6.69536005e-18)
(1.17616519 0.323727294 -1.91383583e-19)
(1.24072932 0.276586393 1.64723308e-18)
(1.30637773 0.230968842 0)
(1.37351917 0.187590801 5.51045255e-18)
(1.4425711 0.147340864 2.7284009e-18)
(1.51381128 0.111110122 2.42657873e-18)
(1.58726814 0.0796119247 5.05318053e-18)
(1.6628011 0.0534839567 2.26143196e-18)
(1.74014711 0.0333637708 0)
(1.81890839 0.0198339425 2.06640516e-16)
(1.8985559 0.013330502 2.03927871e-16)
(1.97855271 0.0118764878 4.34993234e-18)
(2.05859865 0.0118764914 -2.17496616e-18)
(2.1386446 0.0118764914 2.36772422e-18)
(2.21869054 0.0118764914 2.32750254e-16)
(2.29873649 0.0118764914 2.28148777e-16)
(2.37878244 0.0118764914 -1.92758066e-19)
(2.45882838 0.0118764914 -4.54269038e-18)
(2.53887433 0.0118764914 0)
(2.61892027 0.0118764914 -2.36772422e-18)
(2.69896622 0.0118764914 -2.36772422e-18)
(2.77901216 0.0118764914 -2.23472116e-16)
(2.85905811 0.0118764914 -2.23340441e-16)
(2.93910406 0.0118764914 0)
(3.01915 0.0118764914 1.92758066e-19)
(3.09919595 0.0118764914 -4.73544844e-18)
(3.17924189 0.0118764914 0)
(3.25928784 0.0118764914 -1.92758066e-19)
(3.33933379 0.0118764914 0)
(3.41937973 0.0118764914 2.28207564e-16)
(3.49942568 0.0118764914 2.32240954e-16)
(3.57947162 0.0118764914 0)
(3.65951757 0.0118764914 -2.36772422e-18)
(3.73956351 0.0118764914 0)
(3.81960946 0.0118764914 -6.9104146e-18)
(3.89965541 0.0118764914 2.23857632e-16)
(3.97970135 0.0118764914 2.25595173e-16)
(4.0597473 0.0118764914 0)
(4.13979324 0.0118764914 0)
(4.21983919 0.0118764914 -4.73544844e-18)
(4.29988514 0.0118764914 0)
(4.37993108 0.0118764914 4.73544844e-18)
(4.45997703 0.0118764914 0)
(4.54002297 0.0118764914 1.92758066e-19)
(4.62006892 0.0118764914 0)
(4.70011486 0.0118764914 0)
(4.78016081 0.0118764914 0)
(4.86020676 0.0118764914 0)
(4.9402527 0.0118764914 1.92758066e-19)
(5.02029865 0.0118764914 0)
(5.10034459 0.0118764914 -4.73544844e-18)
(5.18039054 0.0118764914 0)
(5.26043649 0.0118764914 -2.36772422e-18)
(5.34048243 0.0118764914 0)
(5.42052838 0.0118764914 4.73544844e-18)
(5.50057432 0.0118764914 -2.2583984e-16)
(5.58062027 0.0118764914 -4.55953504e-16)
(5.66066621 0.0118764914 -2.25372775e-16)
(5.74071216 0.0118764914 0)
(5.82075811 0.0118764914 0)
(5.90080405 0.0118764914 6.9104146e-18)
(5.98085 0.0118764914 -4.92820651e-18)
(6.06089594 0.0118764914 -2.23664874e-16)
(6.14094189 0.0118764914 -2.28085824e-16)
(6.22098784 0.0118764914 0)
(6.30103378 0.0118764914 -2.17496616e-18)
(6.38107973 0.0118764914 0)
(6.46112567 0.0118764914 -6.9104146e-18)
(6.54117162 0.0118764914 0)
(6.62121756 0.0118764914 0)
(6.70126351 0.0118764914 0)
(6.78130946 0.0118764914 0)
(6.8613554 0.0118764914 -4.73544844e-18)
(6.94140135 0.0118764914 -4.73544844e-18)
(7.02144729 0.0118764878 0)
(7.1014441 0.013330502 0)
(7.18109161 0.0198339425 0)
(7.25985289 0.0333637708 -2.40197563e-18)
(7.3371989 0.0534839567 -4.90935194e-18)
(7.41273186 0.0796119247 -1.93380157e-19)
(7.48618872 0.111110122 -2.62009355e-18)
(7.5574289 0.147340864 2.53656242e-18)
(7.62648083 0.187590801 0)
(7.69362227 0.230968842 2.78531158e-18)
(7.75927068 0.276586393 5.62904694e-18)
(7.82383481 0.323727294 -1.94074662e-19)
(7.88770554 0.371804448 -1.94145634e-19)
(7.95123088 0.420339639 -3.27324999e-18)
(8.01456427 0.469121532 0)
(8.07764529 0.518223233 0)
(8.1403587 0.567786198 -5.55814319e-18)
(8.20259282 0.617941066 -1.94571081e-18)
(8.2642401 0.668803629 4.10541166e-18)
(8.32532435 0.720337877 -2.36258104e-18)
(8.38630053 0.77201455 1.94880901e-19)
(8.4479826 0.822859214 -7.22894217e-18)
(8.51129592 0.871667966 -4.76956407e-18)
(8.57732575 0.916710621 1.0084478e-17)
(8.64731939 0.955157331 -1.94204538e-19)
(8.72198507 0.983143497 -4.83026188e-18)
(8.8002098 0.998985479 2.37495822e-18)
(8.87994163 1.00495727 0)
(8.95997703 1.00593825 -4.73544844e-18)
(0.0400124942 1.01006691 4.48646652e-18)
(0.120027032 1.00909 -4.38901914e-18)
(0.199739413 1.00314302 4.40268293e-18)
(0.277951042 0.987366834 -1.95158317e-15)
(0.352618406 0.959496933 -1.88063442e-15)
(0.422633009 0.921209969 9.3514054e-18)
(0.488700171 0.876354457 4.78846602e-18)
(0.552062046 0.827748468 -4.51997248e-18)
(0.613799417 0.777114996 1.99617424e-18)
(0.674833802 0.725652942 -6.64952633e-18)
(0.735975797 0.674332704 -3.9573084e-18)
(0.797678483 0.623681363 -6.0087858e-18)
(0.859965582 0.573734784 1.91006996e-19)
(0.922729979 0.524377655 1.51669537e-18)
(0.98586047 0.475479877 1.83008071e-18)
(1.04924229 0.426900583 4.73400282e-18)
(1.11281526 0.378566967 -1.33038906e-18)
(1.17673218 0.330689482 0)
(1.24133962 0.283744359 3.19056087e-18)
(1.30702682 0.238316257 -3.0692876e-18)
(1.37420085 0.195118363 -5.129851e-18)
(1.44327741 0.155035581 5.08531649e-18)
(1.51453313 0.118955306 -2.14891225e-18)
(1.58799633 0.0875879239 9.20107473e-18)
(1.66352699 0.0615684701 1.92266444e-19)
(1.74086318 0.0415318486 -2.32374208e-18)
(1.81960874 0.0280582145 -2.29471509e-18)
(1.89923685 0.0215817859 4.57743761e-18)
(1.97921287 0.0201338112 -2.09865585e-18)
(2.05923785 0.0201338148 4.39007016e-18)
(2.13926284 0.0201338148 0)
(2.21928783 0.0201338148 4.39007016e-18)
(2.29931282 0.0201338148 6.68148447e-18)
(2.37933781 0.0201338148 -2.29141431e-18)
(2.4593628 0.0201338148 2.29141431e-18)
(2.53938778 0.0201338148 -4.19731168e-18)
(2.61941277 0.0201338148 -2.29141431e-18)
(2.69943776 0.0201338148 0)
(2.77946275 0.0201338148 0)
(2.85948774 0.0201338148 2.29141431e-18)
(2.93951273 0.0201338148 -2.29141431e-18)
(3.01953771 0.0201338148 2.09865584e-18)
(3.0995627 0.0201338148 1.92758472e-19)
(3.17958769 0.0201338148 0)
(3.25961268 0.0201338148 0)
(3.33963767 0.0201338148 1.92758472e-19)
(3.41966266 0.0201338148 2.29141431e-18)
(3.49968765 0.0201338148 -4.39007016e-18)
(3.57971263 0.0201338148 0)
(3.65973762 0.0201338148 -2.09865584e-18)
(3.73976261 0.0201338148 0)
(3.8197876 0.0201338148 -1.92758472e-19)
(3.89981259 0.0201338148 0)
(3.97983758 0.0201338148 2.29141431e-18)
(4.05986256 0.0201338148 0)
(4.13988755 0.0201338148 0)
(4.21991254 0.0201338148 -1.92758472e-19)
(4.29993753 0.0201338148 0)
(4.37996252 0.0201338148 4.19731168e-18)
(4.45998751 0.0201338148 -6.488726e-18)
(4.54001249 0.0201338148 -6.488726e-18)
(4.62003748 0.0201338148 0)
(4.70006247 0.0201338148 0)
(4.78008746 0.0201338148 1.92758472e-19)
(4.86011245 0.0201338148 -1.92758472e-19)
(4.94013744 0.0201338148 0)
(5.02016242 0.0201338148 0)
(5.10018741 0.0201338148 -2.09865584e-18)
(5.1802124 0.0201338148 1.92758472e-19)
(5.26023739 0.0201338148 0)
(5.34026238 0.0201338148 -4.39007016e-18)
(5.42028737 0.0201338148 2.29141431e-18)
(5.50031235 0.0201338148 1.92758472e-19)
(5.58033734 0.0201338148 0)
(5.66036233 0.0201338148 0)
(5.74038732 0.0201338148 -2.29141431e-18)
(5.82041231 0.0201338148 0)
(5.9004373 0.0201338148 1.92758472e-19)
(5.98046229 0.0201338148 0)
(6.06048727 0.0201338148 1.92758472e-19)
(6.14051226 0.0201338148 -2.29141431e-18)
(6.22053725 0.0201338148 0)
(6.30056224 0.0201338148 1.92758472e-19)
(6.38058723 0.0201338148 -2.09865584e-18)
(6.46061222 0.0201338148 0)
(6.5406372 0.0201338148 -6.87424294e-18)
(6.62066219 0.0201338148 0)
(6.70068718 0.0201338148 0)
(6.78071217 0.0201338148 1.92758472e-19)
(6.86073716 0.0201338148 0)
(6.94076215 0.0201338148 1.92758472e-19)
(7.02078713 0.0201338112 -2.29141432e-18)
(7.10076315 0.0215817859 0)
(7.18039126 0.0280582145 -1.92963257e-19)
(7.25913682 0.0415318486 -1.93105654e-19)
(7.33647301 0.0615684701 -2.37517959e-18)
(7.41200367 0.0875879239 4.69785575e-18)
(7.48546687 0.118955306 0)
(7.55672259 0.155035581 -2.83403717e-18)
(7.62579915 0.195118363 0)
(7.69297318 0.238316257 0)
(7.75866038 0.283744359 0)
(7.82326782 0.330689482 -2.92741716e-18)
(7.88718474 0.378566967 -4.37094924e-18)
(7.95075771 0.426900583 1.383798e-18)
(8.01413953 0.475479877 1.9426648e-19)
(8.07727002 0.524377655 0)
(8.14003442 0.573734784 5.55282649e-18)
(8.20232152 0.623681363 -5.82153617e-18)
(8.2640242 0.674332704 2.17331962e-18)
(8.3251662 0.725652942 6.26827376e-18)
(8.38620058 0.777114996 -1.99183789e-18)
(8.44793795 0.827748468 0)
(8.51129983 0.876354457 -7.09158554e-18)
(8.57736699 0.921209969 2.67934438e-18)
(8.64738159 0.959496933 1.94203975e-19)
(8.72204896 0.987366834 -1.93644007e-19)
(8.80026059 1.00314302 6.5086554e-18)
(8.87997297 1.00909 -6.68018503e-18)
(8.95998751 1.01006691 0)
(0.0400016316 1.01434681 0)
(0.119994543 1.01337413 -1.92679552e-19)
(0.199686766 1.00745286 0)
(0.277884816 0.991744884 0)
(0.352553927 0.963995507 8.97260939e-18)
(0.422590261 0.925874141 2.20811736e-18)
(0.488696118 0.881212626 2.40672073e-18)
(0.552108328 0.832816829 1.98775514e-18)
(0.613903023 0.782402284 -1.90541989e-19)
(0.674997751 0.731162713 -2.01383793e-18)
(0.736199606 0.680064325 -1.71645935e-18)
(0.79795973 0.629631943 -1.90894866e-19)
(0.860301745 0.579901283 9.18253312e-18)
(0.923119 0.53075753 3.48404825e-18)
(0.986300773 0.482071147 -1.9118144e-19)
(1.04973279 0.433701874 3.04289874e-18)
(1.11335513 0.385577218 1.46720693e-18)
(1.17731994 0.337906717 -1.79412692e-18)
(1.24197227 0.291164543 0)
(1.30769969 0.245932829 0)
(1.37490749 0.202921681 2.66551361e-18)
(1.44400959 0.163012178 0)
(1.51528143 0.127087882 0)
(1.58875119 0.095856107 0)
(1.66427947 0.0699491426 -4.40276241e-18)
(1.74160547 0.0499991467 1.92410031e-19)
(1.82033475 0.036583765 0)
(1.89994275 0.030135338 4.23772878e-18)
(1.97989721 0.028693624 2.21780141e-18)
(2.05990047 0.0286936276 0)
(2.13990374 0.0286936276 8.67844669e-18)
(2.219907 0.0286936276 0)
(2.29991026 0.0286936276 -1.92758893e-19)
(2.37991353 0.0286936276 -2.2178014e-18)
(2.45991679 0.0286936276 -2.2178014e-18)
(2.53992005 0.0286936276 -1.92758893e-19)
(2.61992331 0.0286936276 0)
(2.69992658 0.0286936276 0)
(2.77992984 0.0286936276 0)
(2.8599331 0.0286936276 -1.92758893e-19)
(2.93993637 0.0286936276 1.92758893e-19)
(3.01993963 0.0286936276 -2.2178014e-18)
(3.09994289 0.0286936276 0)
(3.17994616 0.0286936276 -1.92758893e-19)
(3.25994942 0.0286936276 -2.2178014e-18)
(3.33995268 0.0286936276 -1.92758893e-19)
(3.41995595 0.0286936276 0)
(3.49995921 0.0286936276 0)
(3.57996247 0.0286936276 0)
(3.65996574 0.0286936276 2.2178014e-18)
(3.739969 0.0286936276 0)
(3.81997226 0.0286936276 -2.89384023e-16)
(3.89997553 0.0286936276 -2.88321144e-16)
(3.97997879 0.0286936276 0)
(4.05998205 0.0286936276 6.65340419e-18)
(4.13998532 0.0286936276 0)
(4.21998858 0.0286936276 0)
(4.29999184 0.0286936276 2.0250425e-18)
(4.37999511 0.0286936276 6.65340419e-18)
(4.45999837 0.0286936276 1.92758893e-19)
(4.54000163 0.0286936276 -1.92758893e-19)
(4.62000489 0.0286936276 4.43560279e-18)
(4.70000816 0.0286936276 0)
(4.78001142 0.0286936276 4.43560279e-18)
(4.86001468 0.0286936276 0)
(4.94001795 0.0286936276 -2.41056029e-18)
(5.02002121 0.0286936276 4.2428439e-18)
(5.10002447 0.0286936276 2.86973462e-16)
(5.18002774 0.0286936276 2.86103343e-16)
(5.260031 0.0286936276 2.2178014e-18)
(5.34003426 0.0286936276 1.92758893e-19)
(5.42003753 0.0286936276 2.2178014e-18)
(5.50004079 0.0286936276 2.0250425e-18)
(5.58004405 0.0286936276 1.92758893e-19)
(5.66004732 0.0286936276 1.92758893e-19)
(5.74005058 0.0286936276 -4.43560279e-18)
(5.82005384 0.0286936276 -1.92758893e-19)
(5.90005711 0.0286936276 4.43560279e-18)
(5.98006037 0.0286936276 6.2678864e-18)
(6.06006363 0.0286936276 -1.92758893e-19)
(6.1400669 0.0286936276 2.2178014e-18)
(6.22007016 0.0286936276 0)
(6.30007342 0.0286936276 2.2178014e-18)
(6.38007669 0.0286936276 0)
(6.46007995 0.0286936276 0)
(6.54008321 0.0286936276 0)
(6.62008647 0.0286936276 0)
(6.70008974 0.0286936276 2.2178014e-18)
(6.780093 0.0286936276 0)
(6.86009626 0.0286936276 -8.4856878e-18)
(6.94009953 0.0286936276 2.2178014e-18)
(7.02010279 0.028693624 0)
(7.10005725 0.030135338 -1.92817918e-19)
(7.17966525 0.036583765 -1.92963751e-19)
(7.25839453 0.0499991467 -4.30617532e-18)
(7.33572053 0.0699491426 -2.10524788e-18)
(7.41124881 0.095856107 4.34582981e-18)
(7.48471857 0.127087882 -2.45175209e-18)
(7.55599041 0.163012178 0)
(7.62509251 0.202921681 -2.66758988e-18)
(7.69230031 0.245932829 -5.37479293e-18)
(7.75802773 0.291164543 2.70738074e-18)
(7.82268006 0.337906717 0)
(7.88664487 0.385577218 -1.46720693e-18)
(7.95026721 0.433701874 -1.52144937e-18)
(8.01369923 0.482071147 1.77438028e-18)
(8.076881 0.53075753 3.68162771e-18)
(8.13969825 0.579901283 8.99837337e-18)
(8.20204027 0.629631943 0)
(8.26380039 0.680064325 -7.62888714e-18)
(8.32500225 0.731162713 1.81904632e-18)
(8.38609698 0.782402284 0)
(8.44789167 0.832816829 -2.17828635e-18)
(8.51130388 0.881212626 -2.21610129e-18)
(8.57740974 0.925874141 -4.41623472e-18)
(8.64744607 0.963995507 -4.48923435e-18)
(8.72211518 0.991744884 -2.26126689e-18)
(8.80031323 1.00745286 0)
(8.88000546 1.01337413 0)
(8.95999837 1.01434681 1.92758893e-19)
(0.0399903711 1.01878351 4.00444749e-18)
(0.119960863 1.0178152 0)
(0.19963219 1.01192058 0)
(0.277816164 0.996283315 1.994744e-18)
(0.352487086 0.968658878 1.87993393e-18)
(0.422545947 0.930709175 6.5778364e-18)
(0.488691916 0.886248765 -1.08716608e-17)
(0.552156304 0.838070857 2.48054032e-18)
(0.614010425 0.78788326 0)
(0.675167705 0.736874322 -5.82277641e-18)
(0.736431614 0.686005911 2.0290789e-18)
(0.798251279 0.63580051 -1.90895095e-19)
(0.860650223 0.586293679 -3.82014514e-19)
(0.923522273 0.537371119 0)
(0.986757205 0.488903875 -1.33222852e-18)
(1.05024126 0.440752316 -4.78318633e-18)
(1.11391479 0.392844274 -5.65856945e-18)
(1.17792923 0.34538834 -5.82621478e-18)
(1.24262809 0.29885655 2.41921746e-18)
(1.3083972 0.253828419 0)
(1.37564002 0.211010858 0)
(1.4447686 0.171280982 0)
(1.51605714 0.135518378 4.35700259e-18)
(1.58953371 0.104427178 -1.92124283e-19)
(1.66505952 0.0786368233 4.06254146e-18)
(1.74237495 0.0587766261 0)
(1.82108734 0.045421631 0)
(1.90067451 0.0390022312 0)
(1.98060662 0.0375670073 -1.92759331e-19)
(2.06058736 0.0375670109 2.14679018e-18)
(2.14056811 0.0375670109 8.39440137e-18)
(2.22054885 0.0375670109 1.92759331e-19)
(2.30052959 0.0375670109 0)
(2.38051033 0.0375670109 -2.33954951e-18)
(2.46049108 0.0375670109 0)
(2.54047182 0.0375670109 0)
(2.62045256 0.0375670109 0)
(2.7004333 0.0375670109 -6.05485187e-18)
(2.78041404 0.0375670109 0)
(2.86039479 0.0375670109 6.2476112e-18)
(2.94037553 0.0375670109 1.92759331e-19)
(3.02035627 0.0375670109 1.92759331e-19)
(3.10033701 0.0375670109 2.14679018e-18)
(3.18031775 0.0375670109 -4.29358035e-18)
(3.2602985 0.0375670109 0)
(3.34027924 0.0375670109 -1.92759331e-19)
(3.42025998 0.0375670109 4.10082102e-18)
(3.50024072 0.0375670109 6.05485187e-18)
(3.58022147 0.0375670109 -2.14679018e-18)
(3.66020221 0.0375670109 1.92759331e-19)
(3.74018295 0.0375670109 -1.92759331e-19)
(3.82016369 0.0375670109 2.7736663e-16)
(3.90014443 0.0375670109 2.77655839e-16)
(3.98012518 0.0375670109 -6.2476112e-18)
(4.06010592 0.0375670109 0)
(4.14008666 0.0375670109 0)
(4.2200674 0.0375670109 0)
(4.30004814 0.0375670109 -6.05485187e-18)
(4.38002889 0.0375670109 0)
(4.46000963 0.0375670109 1.92759331e-19)
(4.53999037 0.0375670109 1.95403085e-18)
(4.61997111 0.0375670109 -2.14679018e-18)
(4.69995186 0.0375670109 2.14679018e-18)
(4.7799326 0.0375670109 0)
(4.85991334 0.0375670109 0)
(4.93989408 0.0375670109 0)
(5.01987482 0.0375670109 2.14679018e-18)
(5.09985557 0.0375670109 -2.83807e-16)
(5.17983631 0.0375670109 -2.77848598e-16)
(5.25981705 0.0375670109 -2.14679018e-18)
(5.33979779 0.0375670109 6.05485187e-18)
(5.41977853 0.0375670109 1.92759331e-19)
(5.49975928 0.0375670109 0)
(5.57974002 0.0375670109 0)
(5.65972076 0.0375670109 0)
(5.7397015 0.0375670109 0)
(5.81968225 0.0375670109 0)
(5.89966299 0.0375670109 -1.92759331e-19)
(5.97964373 0.0375670109 0)
(6.05962447 0.0375670109 0)
(6.13960521 0.0375670109 0)
(6.21958596 0.0375670109 -4.10082102e-18)
(6.2995667 0.0375670109 6.05485187e-18)
(6.37954744 0.0375670109 0)
(6.45952818 0.0375670109 4.29358035e-18)
(6.53950892 0.0375670109 0)
(6.61948967 0.0375670109 1.92759331e-19)
(6.69947041 0.0375670109 0)
(6.77945115 0.0375670109 0)
(6.85943189 0.0375670109 0)
(6.93941264 0.0375670109 2.14679018e-18)
(7.01939338 0.0375670073 0)
(7.09932549 0.0390022312 4.2888516e-18)
(7.17891266 0.045421631 0)
(7.25762505 0.0587766261 -1.93106633e-19)
(7.33494048 0.0786368233 4.06254146e-18)
(7.41046629 0.104427178 8.77234332e-18)
(7.48394286 0.135518378 4.35700259e-18)
(7.5552314 0.171280982 1.93648678e-19)
(7.62435998 0.211010858 0)
(7.6916028 0.253828419 -5.19020068e-18)
(7.75737191 0.29885655 -5.60935533e-18)
(7.82207077 0.34538834 1.94070862e-19)
(7.88608521 0.392844274 -1.9414133e-19)
(7.94975874 0.440752316 0)
(8.0132428 0.488903875 0)
(8.07647773 0.537371119 -6.34926958e-18)
(8.13934978 0.586293679 -3.3198894e-18)
(8.20174872 0.63580051 -5.22875599e-18)
(8.26356839 0.686005911 3.67663221e-18)
(8.32483229 0.736874322 1.74613709e-18)
(8.38598958 0.78788326 0)
(8.4478437 0.838070857 4.588726e-18)
(8.51130808 0.886248765 -6.40862455e-18)
(8.57745405 0.930709175 0)
(8.64751291 0.968658878 0)
(8.72218384 0.996283315 -1.93644458e-19)
(8.80036781 1.01192058 -1.93161419e-19)
(8.88003914 1.0178152 -1.9535663e-18)
(8.96000963 1.01878351 0)
(0.0399786981 1.02338273 3.86744414e-18)
(0.11992595 1.02241896 0)
(0.199575615 1.01655197 -3.97462544e-18)
(0.277744997 1.000988 6.15703825e-18)
(0.352417796 0.973493081 -1.91273705e-19)
(0.42250001 0.93572133 0)
(0.488687561 0.891469391 4.49952212e-18)
(0.552206038 0.843517355 0)
(0.614121761 0.793565019 -1.76701583e-18)
(0.675343886 0.742795163 -1.9062785e-19)
(0.736672122 0.692165154 0)
(0.798553509 0.642195049 -1.90895332e-19)
(0.861011466 0.592920247 -6.59171955e-18)
(0.923940318 0.544226984 6.50321726e-18)
(0.987230357 0.495986905 0)
(1.05076836 0.448061037 -8.676888e-18)
(1.11449494 0.400377544 -5.45574431e-18)
(1.17856084 0.353144037 0)
(1.24330795 0.306830338 -5.22631161e-18)
(1.30912027 0.262013248 0)
(1.37639938 0.219396365 2.30113412e-18)
(1.44555541 0.179852697 -2.00403131e-18)
(1.51686127 0.144257708 -8.98227808e-18)
(1.59034489 0.113312232 -1.92124405e-19)
(1.66586815 0.0876427588 2.1521751e-18)
(1.74317263 0.0678756499 -1.92410674e-19)
(1.82186751 0.0545832532 -2.08128924e-18)
(1.90143307 0.048193944 3.95911502e-18)
(1.98134202 0.0467654481 -2.07828873e-18)
(2.06129942 0.0467654516 1.88552894e-18)
(2.14125681 0.0467654516 0)
(2.22121421 0.0467654516 4.15657745e-18)
(2.30117161 0.0467654516 0)
(2.381129 0.0467654516 0)
(2.4610864 0.0467654516 0)
(2.5410438 0.0467654516 -1.88552894e-18)
(2.62100119 0.0467654516 0)
(2.70095859 0.0467654516 4.34933723e-18)
(2.78091598 0.0467654516 -2.07828872e-18)
(2.86087338 0.0467654516 1.92759784e-19)
(2.94083078 0.0467654516 0)
(3.02078817 0.0467654516 1.92759784e-19)
(3.10074557 0.0467654516 -3.96381766e-18)
(3.18070296 0.0467654516 1.92759784e-19)
(3.26066036 0.0467654516 -3.96381766e-18)
(3.34061776 0.0467654516 2.07828872e-18)
(3.42057515 0.0467654516 0)
(3.50053255 0.0467654516 3.96381766e-18)
(3.58048994 0.0467654516 -2.07828872e-18)
(3.66044734 0.0467654516 0)
(3.74040474 0.0467654516 6.04210639e-18)
(3.82036213 0.0467654516 -1.92759784e-19)
(3.90031953 0.0467654516 0)
(3.98027693 0.0467654516 0)
(4.06023432 0.0467654516 0)
(4.14019172 0.0467654516 0)
(4.22014911 0.0467654516 0)
(4.30010651 0.0467654516 0)
(4.38006391 0.0467654516 0)
(4.4600213 0.0467654516 1.92759784e-19)
(4.5399787 0.0467654516 -1.92759784e-19)
(4.61993609 0.0467654516 -3.96381766e-18)
(4.69989349 0.0467654516 0)
(4.77985089 0.0467654516 0)
(4.85980828 0.0467654516 0)
(4.93976568 0.0467654516 3.96381766e-18)
(5.01972307 0.0467654516 0)
(5.09968047 0.0467654516 -1.92759784e-19)
(5.17963787 0.0467654516 2.07828872e-18)
(5.25959526 0.0467654516 1.92759784e-19)
(5.33955266 0.0467654516 6.04210639e-18)
(5.41951006 0.0467654516 0)
(5.49946745 0.0467654516 -3.96381766e-18)
(5.57942485 0.0467654516 1.92759784e-19)
(5.65938224 0.0467654516 0)
(5.73933964 0.0467654516 0)
(5.81929704 0.0467654516 2.07828872e-18)
(5.89925443 0.0467654516 0)
(5.97921183 0.0467654516 -2.07828872e-18)
(6.05916922 0.0467654516 1.92759784e-19)
(6.13912662 0.0467654516 4.34933723e-18)
(6.21908402 0.0467654516 -3.96381766e-18)
(6.29904141 0.0467654516 -1.92759784e-19)
(6.37899881 0.0467654516 4.15657745e-18)
(6.4589562 0.0467654516 -1.92759784e-19)
(6.5389136 0.0467654516 0)
(6.618871 0.0467654516 3.96381766e-18)
(6.69882839 0.0467654516 -2.07828872e-18)
(6.77878579 0.0467654516 0)
(6.85874319 0.0467654516 1.92759784e-19)
(6.93870058 0.0467654516 0)
(7.01865798 0.0467654481 0)
(7.09856693 0.048193944 -2.26884453e-18)
(7.17813249 0.0545832532 -2.08169837e-18)
(7.25682737 0.0678756499 2.10788332e-18)
(7.33413185 0.0876427588 2.15315365e-18)
(7.40965511 0.113312232 4.23854113e-18)
(7.48313873 0.144257708 0)
(7.55444459 0.179852697 2.58316653e-18)
(7.62360062 0.219396365 0)
(7.69087973 0.262013248 -4.81824462e-18)
(7.75669205 0.306830338 0)
(7.82143916 0.353144037 0)
(7.88550506 0.400377544 0)
(7.94923164 0.448061037 -4.24282023e-18)
(8.01276964 0.495986905 -6.06909865e-18)
(8.07605968 0.544226984 1.5302533e-18)
(8.13898853 0.592920247 -6.59513858e-18)
(8.20144649 0.642195049 1.68004528e-18)
(8.26332788 0.692165154 0)
(8.32465611 0.742795163 0)
(8.38587824 0.793565019 0)
(8.44779396 0.843517355 2.21833832e-18)
(8.51131244 0.891469391 0)
(8.57749999 0.93572133 -3.9107438e-18)
(8.6475822 0.973493081 0)
(8.722255 1.000988 -1.93644695e-19)
(8.80042439 1.01655197 0)
(8.88007405 1.02241896 -1.88507448e-18)
(8.9600213 1.02338273 6.04210639e-18)
(0.0399665974 1.02815043 -9.63867279e-20)
(0.119889757 1.02719137 0)
(0.199516967 1.02135302 -2.20948328e-18)
(0.277671223 1.00586504 -1.66476405e-18)
(0.352345967 0.978504375 0)
(0.422452389 0.940917094 1.02769224e-17)
(0.488683046 0.896881263 -3.96959839e-18)
(0.552257594 0.849163373 1.75959083e-18)
(0.614237176 0.799454916 1.69597063e-18)
(0.67552652 0.7489329 0)
(0.736921439 0.698550027 -1.89849484e-18)
(0.79886681 0.648823838 -1.42850014e-18)
(0.861385942 0.599789566 -6.55211503e-18)
(0.924373678 0.551333998 0)
(0.987720843 0.503329407 8.68683824e-18)
(1.05131477 0.455637497 0)
(1.11509635 0.408186781 -1.09027966e-17)
(1.17921559 0.361183848 5.44339903e-18)
(1.2440127 0.31509623 -2.42744396e-18)
(1.30986982 0.270497911 -2.51481428e-18)
(1.37718657 0.228089059 7.23313337e-18)
(1.44637105 0.188738418 3.8367644e-19)
(1.51769485 0.153317185 -1.91981802e-19)
(1.59118579 0.122522771 6.04624389e-18)
(1.66670639 0.0969786077 1.92267336e-19)
(1.74399952 0.077307997 0)
(1.82267626 0.0640804919 2.20767191e-18)
(1.90221942 0.0577223756 0)
(1.98210436 0.056300854 1.92760255e-19)
(2.06203756 0.0563008575 -1.92760255e-19)
(2.14197075 0.0563008575 0)
(2.22190395 0.0563008575 0)
(2.30183714 0.0563008575 1.92760255e-19)
(2.38177034 0.0563008575 -2.01220836e-18)
(2.46170353 0.0563008575 -1.92760255e-19)
(2.54163673 0.0563008575 0)
(2.62156992 0.0563008575 -4.02441673e-18)
(2.70150312 0.0563008575 1.92760255e-19)
(2.78143631 0.0563008575 1.92760255e-19)
(2.86136951 0.0563008575 0)
(2.9413027 0.0563008575 4.02441673e-18)
(3.0212359 0.0563008575 0)
(3.10116909 0.0563008575 2.01220836e-18)
(3.18110229 0.0563008575 0)
(3.26103548 0.0563008575 0)
(3.34096868 0.0563008575 4.02441673e-18)
(3.42090187 0.0563008575 -5.65110458e-18)
(3.50083506 0.0563008575 0)
(3.58076826 0.0563008575 0)
(3.66070145 0.0563008575 0)
(3.74063465 0.0563008575 0)
(3.82056784 0.0563008575 0)
(3.90050104 0.0563008575 0)
(3.98043423 0.0563008575 0)
(4.06036743 0.0563008575 -2.20496862e-18)
(4.14030062 0.0563008575 1.81944811e-18)
(4.22023382 0.0563008575 -2.01220836e-18)
(4.30016701 0.0563008575 -3.83165647e-18)
(4.38010021 0.0563008575 0)
(4.4600334 0.0563008575 5.84386483e-18)
(4.5399666 0.0563008575 1.92760255e-19)
(4.61989979 0.0563008575 -1.92760255e-19)
(4.69983299 0.0563008575 2.01220836e-18)
(4.77976618 0.0563008575 -1.92760255e-19)
(4.85969938 0.0563008575 0)
(4.93963257 0.0563008575 1.81944811e-18)
(5.01956577 0.0563008575 -1.92760255e-19)
(5.09949896 0.0563008575 0)
(5.17943216 0.0563008575 0)
(5.25936535 0.0563008575 0)
(5.33929855 0.0563008575 0)
(5.41923174 0.0563008575 0)
(5.49916494 0.0563008575 -4.02441673e-18)
(5.57909813 0.0563008575 0)
(5.65903132 0.0563008575 0)
(5.73896452 0.0563008575 -1.92760255e-19)
(5.81889771 0.0563008575 0)
(5.89883091 0.0563008575 0)