/*--------------------------------*- C++ -*----------------------------------*\
| =========                 |                                                 |
| \\      /  F ield         | OpenFOAM: The Open Source CFD Toolbox           |
|  \\    /   O peration     | Version:  2112                                  |
|   \\  /    A nd           | Website:  www.openfoam.com                      |
|    \\/     M anipulation  |                                                 |
\*---------------------------------------------------------------------------*/
FoamFile
{
    version     2.0;
    format      ascii;
    arch        "LSB;label=32;scalar=64";
    class       volVectorField;
    location    "9128";
    object      C;
}
// * * * * * * * * * * * * * * * * * * * * * * * * * * * * * * * * * * * * * //

dimensions      [0 1 0 0 0 0 0];

internalField   nonuniform List<vector> 
14751
(
(8.95454613 3.03400009 0.05)
(8.86363595 3.03400012 0.05)
(8.77272697 3.03400003 0.05)
(8.68181801 3.03399995 0.05)
(8.59090903 3.03399989 0.05)
(8.49999989 3.03399985 0.05)
(8.40909075 3.03399979 0.05)
(8.3181818 3.03399976 0.05)
(8.22727271 3.03399976 0.05)
(8.1363636 3.03399976 0.05)
(8.04545451 3.03399977 0.05)
(7.95454599 3.03399984 0.05)
(7.86363694 3.03400001 0.05)
(7.77272762 3.03400015 0.05)
(7.68181851 3.03400025 0.05)
(7.5909092 3.03400033 0.05)
(7.5000001 3.03400038 0.05)
(7.40909102 3.03400042 0.05)
(7.31818193 3.03400047 0.05)
(7.22727245 3.03400046 0.05)
(7.13636336 3.03400041 0.05)
(7.04545425 3.03400035 0.05)
(6.95454515 3.03400028 0.05)
(6.86363561 3.03400016 0.05)
(6.77272643 3.03399997 0.05)
(6.68181763 3.0339998 0.05)
(6.59090855 3.03399967 0.05)
(6.49999985 3.0339996 0.05)
(6.40909077 3.03399958 0.05)
(6.31818168 3.03399956 0.05)
(6.22727259 3.03399953 0.05)
(6.13636351 3.03399951 0.05)
(6.04545442 3.03399949 0.05)
(5.95454534 3.03399947 0.05)
(5.86363625 3.03399945 0.05)
(5.77272749 3.03399947 0.05)
(5.6818184 3.03399954 0.05)
(5.59090933 3.0339996 0.05)
(5.50000024 3.03399967 0.05)
(5.40909163 3.0339998 0.05)
(5.31818266 3.03400002 0.05)
(5.22727328 3.0340002 0.05)
(5.13636417 3.03400035 0.05)
(5.04545462 3.03400043 0.05)
(4.95454553 3.03400046 0.05)
(4.86363644 3.03400048 0.05)
(4.77272735 3.0340005 0.05)
(4.68181826 3.03400052 0.05)
(4.59090917 3.03400054 0.05)
(4.50000008 3.03400056 0.05)
(4.40909099 3.03400058 0.05)
(4.31818174 3.03400058 0.05)
(4.22727265 3.03400056 0.05)
(4.13636356 3.03400054 0.05)
(4.04545447 3.03400052 0.05)
(3.95454537 3.0340005 0.05)
(3.86363629 3.03400048 0.05)
(3.7727272 3.03400046 0.05)
(3.68181811 3.03400043 0.05)
(3.59090857 3.03400035 0.05)
(3.49999946 3.03400021 0.05)
(3.40909008 3.03400002 0.05)
(3.31818111 3.03399981 0.05)
(3.22727249 3.03399968 0.05)
(3.13636341 3.03399961 0.05)
(3.04545433 3.03399955 0.05)
(2.95454525 3.03399948 0.05)
(2.86363642 3.03399945 0.05)
(2.77272734 3.03399946 0.05)
(2.68181825 3.03399946 0.05)
(2.59090916 3.03399947 0.05)
(2.50000008 3.03399947 0.05)
(2.40909099 3.03399948 0.05)
(2.3181819 3.03399948 0.05)
(2.22727282 3.03399949 0.05)
(2.13636374 3.0339995 0.05)
(2.04545465 3.0339995 0.05)
(1.95454556 3.03399951 0.05)
(1.86363647 3.03399952 0.05)
(1.77272739 3.03399952 0.05)
(1.68181829 3.03399953 0.05)
(1.59090919 3.03399953 0.05)
(1.5000001 3.03399954 0.05)
(1.40909113 3.03399956 0.05)
(1.31818204 3.0339996 0.05)
(1.22727295 3.03399964 0.05)
(1.13636385 3.03399969 0.05)
(1.04545496 3.03399976 0.05)
(0.954545872 3.03399985 0.05)
(0.863636994 3.03399998 0.05)
(0.772727803 3.03400013 0.05)
(0.681818141 3.03400019 0.05)
(0.590909041 3.03400018 0.05)
(0.49999993 3.03400017 0.05)
(0.409090857 3.03400016 0.05)
(0.31818168 3.03400015 0.05)
(0.227272614 3.03400012 0.05)
(0.136363459 3.03400008 0.05)
(0.0454543163 3.03400003 0.05)
(8.95454972 3.02991108 0.05)
(8.86362672 3.02991033 0.05)
(8.77271208 3.02990628 0.05)
(8.68179495 3.02989989 0.05)
(8.59088152 3.02989151 0.05)
(8.49996938 3.0298823 0.05)
(8.40905501 3.02987257 0.05)
(8.3181417 3.02986249 0.05)
(8.22722874 3.02985233 0.05)
(8.13631646 3.0298421 0.05)
(8.04540459 3.02983184 0.05)
(7.95449341 3.02982182 0.05)
(7.86358213 3.02981211 0.05)
(7.77267106 3.0298025 0.05)
(7.68176063 3.02979302 0.05)
(7.59085064 3.02978369 0.05)
(7.49994188 3.02977457 0.05)
(7.4090338 3.02976575 0.05)
(7.3181266 3.02975723 0.05)
(7.22721972 3.0297489 0.05)
(7.13631344 3.02974077 0.05)
(7.0454073 3.02973298 0.05)
(6.95450115 3.02972555 0.05)
(6.86359474 3.02971835 0.05)
(6.77268839 3.02971135 0.05)
(6.68178197 3.02970478 0.05)
(6.59087542 3.02969866 0.05)
(6.49996889 3.02969303 0.05)
(6.40906212 3.02968787 0.05)
(6.31815522 3.02968306 0.05)
(6.22724822 3.02967858 0.05)
(6.13634111 3.02967443 0.05)
(6.04543389 3.02967059 0.05)
(5.95452657 3.02966704 0.05)
(5.86361916 3.02966379 0.05)
(5.77271179 3.02966091 0.05)
(5.68180419 3.02965841 0.05)
(5.59089651 3.02965616 0.05)
(5.49998875 3.02965415 0.05)
(5.40908107 3.02965252 0.05)
(5.31817317 3.02965129 0.05)
(5.22726517 3.02965021 0.05)
(5.13635717 3.02964925 0.05)
(5.04544892 3.02964832 0.05)
(4.95454083 3.02964742 0.05)
(4.86363271 3.02964671 0.05)
(4.77272455 3.02964616 0.05)
(4.68181638 3.02964579 0.05)
(4.59090819 3.02964559 0.05)
(4.49999999 3.02964555 0.05)
(4.40909181 3.02964568 0.05)
(4.31818354 3.02964592 0.05)
(4.22727537 3.02964628 0.05)
(4.13636722 3.02964681 0.05)
(4.04545908 3.02964751 0.05)
(3.95455099 3.02964839 0.05)
(3.86364293 3.02964946 0.05)
(3.77273491 3.02965071 0.05)
(3.68182695 3.02965216 0.05)
(3.59091887 3.02965368 0.05)
(3.50001103 3.02965525 0.05)
(3.40910322 3.02965697 0.05)
(3.31819553 3.02965887 0.05)
(3.22728807 3.02966119 0.05)
(3.13638055 3.02966393 0.05)
(3.04547313 3.02966694 0.05)
(2.9545658 3.02967025 0.05)
(2.86365869 3.02967393 0.05)
(2.77275159 3.02967802 0.05)
(2.68184458 3.02968242 0.05)
(2.59093769 3.02968717 0.05)
(2.5000309 3.02969225 0.05)
(2.40912424 3.02969769 0.05)
(2.31821768 3.02970349 0.05)
(2.22731121 3.02970965 0.05)
(2.13640485 3.02971618 0.05)
(2.04549863 3.02972307 0.05)
(1.95459246 3.02973034 0.05)
(1.86368643 3.02973798 0.05)
(1.77278014 3.02974597 0.05)
(1.68187371 3.02975431 0.05)
(1.5909665 3.02976299 0.05)
(1.50005862 3.02977198 0.05)
(1.40914983 3.0297813 0.05)
(1.31824008 3.02979091 0.05)
(1.22732958 3.02980074 0.05)
(1.13641864 3.02981077 0.05)
(1.04550737 3.029821 0.05)
(0.954595904 3.02983138 0.05)
(0.863684053 3.02984186 0.05)
(0.772771902 3.02985236 0.05)
(0.681858633 3.02986258 0.05)
(0.590944654 3.02987236 0.05)
(0.50003092 3.02988175 0.05)
(0.40911664 3.02989046 0.05)
(0.318204282 3.02989821 0.05)
(0.227290304 3.02990458 0.05)
(0.136374635 3.02990888 0.05)
(0.045454548 3.02991038 0.05)
(8.95455269 3.02564004 0.05)
(8.86362138 3.02563696 0.05)
(8.77270639 3.02562221 0.05)
(8.68178756 3.02559862 0.05)
(8.59087159 3.02556749 0.05)
(8.4999538 3.02553312 0.05)
(8.40902936 3.02549674 0.05)
(8.31810515 3.02545881 0.05)
(8.22718177 3.02542032 0.05)
(8.13626029 3.02538149 0.05)
(8.04534009 3.02534252 0.05)
(7.95442106 3.02530392 0.05)
(7.8635021 3.02526593 0.05)
(7.77258374 3.02522839 0.05)
(7.68166711 3.02519149 0.05)
(7.59075262 3.02515533 0.05)
(7.49984187 3.02512005 0.05)
(7.40893412 3.02508589 0.05)
(7.31802944 3.02505285 0.05)
(7.22712677 3.02502084 0.05)
(7.13622575 3.02498989 0.05)
(7.04532529 3.02496024 0.05)
(6.95442471 3.02493194 0.05)
(6.86352367 3.02490486 0.05)
(6.77262242 3.02487898 0.05)
(6.68172077 3.02485458 0.05)
(6.59081879 3.02483166 0.05)
(6.49991653 3.02481029 0.05)
(6.40901385 3.02479043 0.05)
(6.31811083 3.02477188 0.05)
(6.22720747 3.02475462 0.05)
(6.13630377 3.0247386 0.05)
(6.04539978 3.02472378 0.05)
(5.95449547 3.02471012 0.05)
(5.86359089 3.02469756 0.05)
(5.77268614 3.02468622 0.05)
(5.68178103 3.02467604 0.05)
(5.59087569 3.02466684 0.05)
(5.49997013 3.02465856 0.05)
(5.40906446 3.02465136 0.05)
(5.31815849 3.02464521 0.05)
(5.22725242 3.02463981 0.05)
(5.13634618 3.02463509 0.05)
(5.04543972 3.02463093 0.05)
(4.95453325 3.02462728 0.05)
(4.86362669 3.02462434 0.05)
(4.77272006 3.02462208 0.05)
(4.68181338 3.02462049 0.05)
(4.59090666 3.02461955 0.05)
(4.49999992 3.02461926 0.05)
(4.40909319 3.02461963 0.05)
(4.31818642 3.02462058 0.05)
(4.22727974 3.02462211 0.05)
(4.13637311 3.02462432 0.05)
(4.04546654 3.0246272 0.05)
(3.95456007 3.02463078 0.05)
(3.86365369 3.02463509 0.05)
(3.77274745 3.02464013 0.05)
(3.68184134 3.02464596 0.05)
(3.59093529 3.02465239 0.05)
(3.50002953 3.02465947 0.05)
(3.40912398 3.02466734 0.05)
(3.31821859 3.02467607 0.05)
(3.22731355 3.02468597 0.05)
(3.13640867 3.02469708 0.05)
(3.04550407 3.02470924 0.05)
(2.95459975 3.02472251 0.05)
(2.8636958 3.02473705 0.05)
(2.7727921 3.0247529 0.05)
(2.68188872 3.02477 0.05)
(2.5909857 3.02478839 0.05)
(2.50008299 3.02480809 0.05)
(2.40918066 3.02482915 0.05)
(2.31827867 3.02485159 0.05)
(2.22737701 3.02487541 0.05)
(2.1364757 3.02490063 0.05)
(2.04557479 3.02492724 0.05)
(1.95467416 3.02495526 0.05)
(1.86377391 3.02498467 0.05)
(1.77287298 3.02501541 0.05)
(1.68197103 3.02504747 0.05)
(1.59106658 3.02508081 0.05)
(1.50015942 3.02511528 0.05)
(1.40924885 3.02515087 0.05)
(1.31833491 3.02518741 0.05)
(1.22741834 3.02522474 0.05)
(1.1365002 3.02526274 0.05)
(1.04558122 3.0253013 0.05)
(0.954661953 3.02534022 0.05)
(0.863741795 3.02537926 0.05)
(0.772820701 3.02541822 0.05)
(0.681897146 3.02545656 0.05)
(0.590971879 3.02549362 0.05)
(0.50004817 3.02552912 0.05)
(0.409126264 3.02556198 0.05)
(0.318211589 3.02559127 0.05)
(0.227297437 3.02561538 0.05)
(0.136380798 3.02563177 0.05)
(0.0454544677 3.02563771 0.05)
(8.95455403 3.02117937 0.05)
(8.8636193 3.0211727 0.05)
(8.77270782 3.02114192 0.05)
(8.68179179 3.02109272 0.05)
(8.59087462 3.0210278 0.05)
(8.49994897 3.02095592 0.05)
(8.40901041 3.02087968 0.05)
(8.31806995 3.02079999 0.05)
(8.22713061 3.02071885 0.05)
(8.13619475 3.02063686 0.05)
(8.04526132 3.02055446 0.05)
(7.95432947 3.02047244 0.05)
(7.8633979 3.02039134 0.05)
(7.77246733 3.02031112 0.05)
(7.68154002 3.02023224 0.05)
(7.59061755 3.0201549 0.05)
(7.49970251 3.02007946 0.05)
(7.40879421 3.02000628 0.05)
(7.31789241 3.01993541 0.05)
(7.22699537 3.01986686 0.05)
(7.13610169 3.01980067 0.05)
(7.04520925 3.01973719 0.05)
(6.95431657 3.01967656 0.05)
(6.86342319 3.01961869 0.05)
(6.7725291 3.01956359 0.05)
(6.68163422 3.01951153 0.05)
(6.59073874 3.0194625 0.05)
(6.49984251 3.01941659 0.05)
(6.40894564 3.01937373 0.05)
(6.31804809 3.01933369 0.05)
(6.22714988 3.0192964 0.05)
(6.13625103 3.01926177 0.05)
(6.04535159 3.01922973 0.05)
(5.95445156 3.01920017 0.05)
(5.86355098 3.019173 0.05)
(5.77264991 3.0191483 0.05)
(5.68174833 3.01912596 0.05)
(5.59084631 3.01910573 0.05)
(5.49994386 3.01908749 0.05)
(5.40904099 3.01907136 0.05)
(5.31813781 3.01905727 0.05)
(5.22723442 3.01904488 0.05)
(5.13633068 3.0190341 0.05)
(5.04542673 3.01902473 0.05)
(4.95452255 3.01901672 0.05)
(4.86361822 3.01901024 0.05)
(4.77271372 3.01900523 0.05)
(4.68180916 3.01900168 0.05)
(4.5909045 3.01899956 0.05)
(4.49999983 3.01899886 0.05)
(4.40909515 3.01899959 0.05)
(4.31819048 3.01900165 0.05)
(4.22728591 3.01900507 0.05)
(4.13638143 3.01900994 0.05)
(4.04547707 3.0190163 0.05)
(3.95457289 3.01902418 0.05)
(3.86366889 3.01903362 0.05)
(3.77276514 3.01904468 0.05)
(3.68186165 3.01905743 0.05)
(3.59095849 3.01907172 0.05)
(3.50005565 3.01908762 0.05)
(3.40915326 3.01910536 0.05)
(3.31825119 3.01912504 0.05)
(3.22734952 3.01914702 0.05)
(3.13644839 3.01917136 0.05)
(3.04554778 3.01919799 0.05)
(2.95464771 3.019227 0.05)
(2.86374823 3.01925862 0.05)
(2.77284937 3.01929295 0.05)
(2.68195112 3.01932995 0.05)
(2.59105356 3.01936971 0.05)
(2.50015665 3.01941229 0.05)
(2.40926045 3.01945777 0.05)
(2.31836493 3.01950618 0.05)
(2.22747009 3.01955754 0.05)
(2.13657593 3.01961183 0.05)
(2.04568255 3.0196691 0.05)
(1.9547898 3.01972931 0.05)
(1.86389766 3.01979245 0.05)
(1.77300425 3.01985838 0.05)
(1.68210826 3.01992705 0.05)
(1.59120712 3.01999837 0.05)
(1.5003 3.02007203 0.05)
(1.40938558 3.0201479 0.05)
(1.3184641 3.02022566 0.05)
(1.22753711 3.02030496 0.05)
(1.13660692 3.02038557 0.05)
(1.04567525 3.02046717 0.05)
(0.954743357 3.02054931 0.05)
(0.863810068 3.02063149 0.05)
(0.772874878 3.02071333 0.05)
(0.681935683 3.02079397 0.05)
(0.590993755 3.02087204 0.05)
(0.500055626 3.02094669 0.05)
(0.409124036 3.0210157 0.05)
(0.318207687 3.02107713 0.05)
(0.227296906 3.0211277 0.05)
(0.136383438 3.02116212 0.05)
(0.0454545871 3.02117472 0.05)
(8.95455471 3.01652121 0.05)
(8.86361921 3.01650976 0.05)
(8.77271418 3.01645865 0.05)
(8.6818047 3.01637722 0.05)
(8.59088737 3.01626996 0.05)
(8.49995198 3.01615092 0.05)
(8.40899593 3.01602444 0.05)
(8.31803464 3.01589194 0.05)
(8.22707468 3.01575679 0.05)
(8.13612004 3.01562001 0.05)
(8.0451692 3.01548236 0.05)
(7.95422053 3.01534499 0.05)
(7.86327202 3.01520879 0.05)
(7.7723249 3.01507395 0.05)
(7.68138296 3.01494126 0.05)
(7.5904493 3.01481106 0.05)
(7.49952787 3.01468396 0.05)
(7.40861817 3.01456054 0.05)
(7.31771945 3.01444091 0.05)
(7.22682905 3.01432518 0.05)
(7.13594444 3.01421347 0.05)
(7.04506204 3.01410624 0.05)
(6.95417924 3.01400376 0.05)
(6.8632953 3.013906 0.05)
(6.77241024 3.01381301 0.05)
(6.68152399 3.01372504 0.05)
(6.59063669 3.01364209 0.05)
(6.49974823 3.01356425 0.05)
(6.4088587 3.01349141 0.05)
(6.31796809 3.01342334 0.05)
(6.22707643 3.01335991 0.05)
(6.13618373 3.01330099 0.05)
(6.04529007 3.01324643 0.05)
(5.95439547 3.01319609 0.05)
(5.8635 3.0131498 0.05)
(5.77260371 3.0131076 0.05)
(5.68170663 3.0130693 0.05)
(5.59080883 3.01303457 0.05)
(5.49991037 3.01300325 0.05)
(5.40901127 3.01297536 0.05)
(5.31811164 3.01295078 0.05)
(5.22721159 3.01292915 0.05)
(5.13631105 3.01291036 0.05)
(5.04541015 3.01289413 0.05)
(4.9545089 3.01288037 0.05)
(4.8636074 3.01286923 0.05)
(4.77270566 3.01286061 0.05)
(4.68180378 3.01285448 0.05)
(4.59090178 3.0128508 0.05)
(4.49999973 3.01284955 0.05)
(4.40909768 3.01285074 0.05)
(4.31819567 3.01285426 0.05)
(4.22729378 3.01286016 0.05)
(4.13639205 3.01286855 0.05)
(4.04549051 3.01287948 0.05)
(3.95458926 3.01289301 0.05)
(3.8636883 3.01290921 0.05)
(3.77278774 3.01292817 0.05)
(3.68188761 3.01295002 0.05)
(3.59098796 3.01297464 0.05)
(3.50008886 3.01300218 0.05)
(3.40919042 3.01303292 0.05)
(3.31829256 3.01306703 0.05)
(3.2273954 3.01310487 0.05)
(3.13649904 3.01314658 0.05)
(3.04560351 3.01319217 0.05)
(2.95470885 3.0132418 0.05)
(2.86381515 3.01329576 0.05)
(2.77292241 3.01335423 0.05)
(2.68203068 3.01341721 0.05)
(2.59114004 3.01348486 0.05)
(2.50025045 3.01355726 0.05)
(2.409362 3.01363453 0.05)
(2.31847466 3.01371675 0.05)
(2.22758841 3.0138039 0.05)
(2.13670328 3.01389596 0.05)
(2.04581934 3.01399298 0.05)
(1.95493645 3.0140949 0.05)
(1.86405444 3.01420169 0.05)
(1.77317038 3.01431309 0.05)
(1.68228154 3.01442901 0.05)
(1.59138409 3.01454928 0.05)
(1.5004763 3.01467338 0.05)
(1.40955617 3.01480103 0.05)
(1.31862413 3.01493168 0.05)
(1.2276829 3.01506476 0.05)
(1.1367364 3.01519986 0.05)
(1.04578782 3.0153364 0.05)
(0.954839124 3.01547361 0.05)
(0.863888608 3.01561066 0.05)
(0.772934994 3.01574695 0.05)
(0.681975407 3.01588123 0.05)
(0.591012322 3.01601121 0.05)
(0.500056065 3.01613534 0.05)
(0.40911304 3.01624996 0.05)
(0.318195401 3.01635188 0.05)
(0.227290713 3.01643573 0.05)
(0.136383509 3.01649284 0.05)
(0.0454545802 3.01651381 0.05)
(8.95455504 3.01165768 0.05)
(8.8636204 3.01164028 0.05)
(8.77272409 3.01156504 0.05)
(8.68182422 3.01144596 0.05)
(8.5909075 3.01128962 0.05)
(8.49996076 3.01111575 0.05)
(8.40898438 3.01093067 0.05)
(8.31799848 3.0107365 0.05)
(8.22701396 3.01053812 0.05)
(8.13603679 3.01033711 0.05)
(8.04506498 3.01013459 0.05)
(7.95409581 3.00993215 0.05)
(7.86312668 3.00973108 0.05)
(7.77215932 3.00953184 0.05)
(7.68119934 3.00933561 0.05)
(7.59025178 3.00914293 0.05)
(7.49932212 3.00895473 0.05)
(7.40841024 3.00877182 0.05)
(7.31751475 3.00859439 0.05)
(7.22663195 3.0084227 0.05)
(7.13575788 3.00825695 0.05)
(7.04488722 3.00809776 0.05)
(6.95401602 3.00794551 0.05)
(6.86314321 3.00780027 0.05)
(6.7722688 3.00766214 0.05)
(6.68139271 3.00753137 0.05)
(6.59051509 3.00740797 0.05)
(6.49963578 3.00729203 0.05)
(6.40875495 3.0071834 0.05)
(6.31787257 3.00708182 0.05)
(6.22698867 3.00698714 0.05)
(6.13610329 3.00689915 0.05)
(6.04521651 3.00681766 0.05)
(5.95432838 3.00674243 0.05)
(5.86343898 3.00667325 0.05)
(5.77254839 3.00661007 0.05)
(5.68165667 3.00655263 0.05)
(5.59076393 3.00650052 0.05)
(5.49987021 3.0064535 0.05)
(5.40897559 3.0064115 0.05)
(5.3180802 3.00637432 0.05)
(5.22718416 3.0063416 0.05)
(5.13628746 3.00631317 0.05)
(5.04539025 3.00628869 0.05)
(4.95449252 3.00626804 0.05)
(4.86359441 3.00625129 0.05)
(4.77269597 3.00623833 0.05)
(4.68179733 3.0062291 0.05)
(4.5908985 3.00622355 0.05)
(4.49999961 3.00622163 0.05)
(4.40910072 3.00622336 0.05)
(4.31820189 3.00622865 0.05)
(4.22730323 3.00623753 0.05)
(4.13640479 3.00625015 0.05)
(4.04550664 3.00626657 0.05)
(3.9546089 3.00628688 0.05)
(3.86371159 3.0063112 0.05)
(3.77281485 3.00633966 0.05)
(3.68191872 3.00637242 0.05)
(3.59102335 3.00640946 0.05)
(3.50012872 3.00645097 0.05)
(3.409235 3.00649732 0.05)
(3.31834218 3.00654872 0.05)
(3.22745035 3.00660557 0.05)
(3.13655968 3.00666811 0.05)
(3.04567021 3.00673642 0.05)
(2.95478201 3.00681075 0.05)
(2.86389513 3.00689146 0.05)
(2.77300969 3.00697881 0.05)
(2.6821257 3.00707286 0.05)
(2.59124326 3.00717383 0.05)
(2.50036235 3.00728186 0.05)
(2.40948308 3.00739708 0.05)
(2.3186054 3.00751962 0.05)
(2.22772929 3.00764943 0.05)
(2.13685478 3.00778648 0.05)
(2.04598195 3.00793083 0.05)
(1.95511066 3.00808235 0.05)
(1.86424049 3.00824102 0.05)
(1.7733673 3.0084064 0.05)
(1.68248661 3.00857838 0.05)
(1.59159313 3.00875666 0.05)
(1.50068401 3.00894049 0.05)
(1.40975652 3.00912938 0.05)
(1.3188113 3.00932252 0.05)
(1.22785252 3.00951908 0.05)
(1.13688602 3.00971845 0.05)
(1.04591685 3.0099197 0.05)
(0.954947756 3.0101217 0.05)
(0.863976475 3.01032323 0.05)
(0.773000755 3.01052342 0.05)
(0.682016949 3.01072057 0.05)
(0.591028914 3.01091133 0.05)
(0.500051422 3.01109331 0.05)
(0.409095446 3.01126118 0.05)
(0.318176817 3.01141034 0.05)
(0.22728034 3.01153297 0.05)
(0.136381795 3.01161651 0.05)
(0.0454545708 3.01164725 0.05)
(8.95455508 3.00658069 0.05)
(8.86362286 3.00655622 0.05)
(8.77273708 3.00645342 0.05)
(8.68184871 3.0062921 0.05)
(8.59093317 3.00608121 0.05)
(8.49997377 3.0058462 0.05)
(8.40897461 3.00559561 0.05)
(8.31796088 3.00533242 0.05)
(8.22694844 3.00506317 0.05)
(8.13594556 3.00479007 0.05)
(8.04494971 3.00451467 0.05)
(7.95395699 3.00423903 0.05)
(7.86296405 3.0039649 0.05)
(7.7719733 3.00369308 0.05)
(7.68099237 3.00342516 0.05)
(7.59002854 3.00316195 0.05)
(7.49908908 3.00290472 0.05)
(7.40817434 3.00265455 0.05)
(7.31728219 3.00241173 0.05)
(7.22640777 3.00217672 0.05)
(7.13554549 3.0019498 0.05)
(7.04468804 3.00173174 0.05)
(6.95382993 3.00152308 0.05)
(6.86296968 3.001324 0.05)
(6.77210731 3.00113466 0.05)
(6.68124275 3.00095531 0.05)
(6.59037609 3.00078598 0.05)
(6.49950721 3.00062673 0.05)
(6.40863628 3.00047741 0.05)
(6.31776326 3.00033774 0.05)
(6.22688821 3.00020749 0.05)
(6.13601116 3.00008643 0.05)
(6.04513224 2.99997426 0.05)
(5.95425149 2.9998707 0.05)
(5.86336905 2.99977544 0.05)
(5.77248498 2.99968835 0.05)
(5.68159941 2.99960908 0.05)
(5.59071244 2.99953714 0.05)
(5.49982417 2.9994722 0.05)
(5.40893469 2.9994141 0.05)
(5.31804416 2.99936255 0.05)
(5.22715274 2.99931716 0.05)
(5.13626042 2.99927771 0.05)
(5.04536742 2.99924381 0.05)
(4.95447372 2.99921527 0.05)
(4.86357952 2.99919213 0.05)
(4.77268486 2.99917422 0.05)
(4.68178992 2.99916144 0.05)
(4.59089475 2.99915374 0.05)
(4.49999948 2.99915106 0.05)
(4.40910421 2.99915342 0.05)
(4.31820903 2.99916071 0.05)
(4.22731407 2.999173 0.05)
(4.13641942 2.99919044 0.05)
(4.04552516 2.99921313 0.05)
(3.95463144 2.99924119 0.05)
(3.86373832 2.99927478 0.05)
(3.77284595 2.99931407 0.05)
(3.68195442 2.9993593 0.05)
(3.5910639 2.99941051 0.05)
(3.50017439 2.99946797 0.05)
(3.4092861 2.99953213 0.05)
(3.31839903 2.99960326 0.05)
(3.22751333 2.99968181 0.05)
(3.13662917 2.99976809 0.05)
(3.04574663 2.9998623 0.05)
(2.95486579 2.99996477 0.05)
(2.86398674 3.00007594 0.05)
(2.7731096 3.00019615 0.05)
(2.68223443 3.00032556 0.05)
(2.59136133 3.00046443 0.05)
(2.5004903 3.00061296 0.05)
(2.40962143 3.00077133 0.05)
(2.31875472 3.00093966 0.05)
(2.22789011 3.00111792 0.05)
(2.13702763 3.00130604 0.05)
(2.04616734 3.00150406 0.05)
(1.95530913 3.00171183 0.05)
(1.86445228 3.00192925 0.05)
(1.77359128 3.00215577 0.05)
(1.6827196 3.00239118 0.05)
(1.59183034 3.00263508 0.05)
(1.50091933 3.00288641 0.05)
(1.40998305 3.0031445 0.05)
(1.31902241 3.00340818 0.05)
(1.22804324 3.00367637 0.05)
(1.13705361 3.0039482 0.05)
(1.04606069 3.00422233 0.05)
(0.955068129 3.00449724 0.05)
(0.86407303 3.0047713 0.05)
(0.773072036 3.0050433 0.05)
(0.682060664 3.00531102 0.05)
(0.591044432 3.00556997 0.05)
(0.50004303 3.00581678 0.05)
(0.409072769 3.00604429 0.05)
(0.318153321 3.00624628 0.05)
(0.227266715 3.00641227 0.05)
(0.136378719 3.00652538 0.05)
(0.0454545812 3.00656705 0.05)
(8.95455476 3.00128196 0.05)
(8.86362577 3.00124921 0.05)
(8.77275198 3.00111557 0.05)
(8.68187749 3.00090795 0.05)
(8.59096353 3.00063799 0.05)
(8.4999902 3.00033657 0.05)
(8.4089661 3.00001461 0.05)
(8.31792164 2.99967613 0.05)
(8.22687833 2.99932947 0.05)
(8.13584692 2.99897755 0.05)
(8.04482435 2.99862239 0.05)
(7.95380536 2.99826657 0.05)
(7.86278588 2.99791236 0.05)
(7.77176895 2.99756091 0.05)
(7.68076454 2.9972143 0.05)
(7.58978243 2.99687363 0.05)
(7.49883182 2.99654056 0.05)
(7.40791366 2.99621646 0.05)
(7.31702498 2.99590174 0.05)
(7.22615964 2.99559708 0.05)
(7.13531026 2.99530287 0.05)
(7.04446732 2.99502003 0.05)
(6.95362359 2.99474925 0.05)
(6.86277719 2.99449087 0.05)
(6.7719281 2.99424509 0.05)
(6.68107626 2.99401219 0.05)
(6.59022171 2.99379222 0.05)
(6.49936435 2.99358522 0.05)
(6.40850438 2.993391 0.05)
(6.31764173 2.99320928 0.05)
(6.22677647 2.99303978 0.05)
(6.13590867 2.9928822 0.05)
(6.04503846 2.99273615 0.05)
(5.95416592 2.99260129 0.05)
(5.86329119 2.99247722 0.05)
(5.77241436 2.9923637 0.05)
(5.68153562 2.9922603 0.05)
(5.59065508 2.99216644 0.05)
(5.49977288 2.99208169 0.05)
(5.40888912 2.99200578 0.05)
(5.31800401 2.99193834 0.05)
(5.2271177 2.99187894 0.05)
(5.13623028 2.99182729 0.05)
(5.04534197 2.99178296 0.05)
(4.95445277 2.99174571 0.05)
(4.8635629 2.99171548 0.05)
(4.77267247 2.99169209 0.05)
(4.68178166 2.9916754 0.05)
(4.59089056 2.99166532 0.05)
(4.49999933 2.9916618 0.05)
(4.4091081 2.99166484 0.05)
(4.318217 2.99167435 0.05)
(4.22732616 2.99169041 0.05)
(4.13643572 2.9917132 0.05)
(4.0455458 2.99174282 0.05)
(3.95465656 2.99177945 0.05)
(3.86376811 2.99182329 0.05)
(3.77288062 2.99187456 0.05)
(3.68199422 2.99193358 0.05)
(3.5911091 2.99200047 0.05)
(3.50022529 2.99207558 0.05)
(3.40934301 2.99215942 0.05)
(3.31846236 2.99225236 0.05)
(3.22758347 2.99235488 0.05)
(3.13670655 2.9924674 0.05)
(3.0458317 2.99259023 0.05)
(2.95495904 2.9927238 0.05)
(2.86408866 2.99286862 0.05)
(2.77322074 2.99302513 0.05)
(2.68235533 2.99319357 0.05)
(2.59149258 2.99337427 0.05)
(2.50063247 2.99356749 0.05)
(2.40977512 2.99377343 0.05)
(2.31892051 2.99399227 0.05)
(2.2280686 2.99422394 0.05)
(2.13721938 2.99446832 0.05)
(2.04637291 2.99472548 0.05)
(1.9555291 2.99499518 0.05)
(1.86468687 2.99527729 0.05)
(1.77383921 2.99557107 0.05)
(1.6829773 2.99587625 0.05)
(1.59209248 2.99619229 0.05)
(1.50117912 2.99651781 0.05)
(1.41023283 2.99685192 0.05)
(1.31925483 2.99719308 0.05)
(1.22825281 2.99753992 0.05)
(1.13723732 2.99789125 0.05)
(1.04621789 2.99824533 0.05)
(0.955199172 2.99860018 0.05)
(0.864177609 2.9989537 0.05)
(0.773148581 2.99930433 0.05)
(0.68210674 2.99964927 0.05)
(0.591059466 2.99998279 0.05)
(0.500031825 3.00030044 0.05)
(0.409046086 3.0005931 0.05)
(0.318125943 3.00085275 0.05)
(0.227250574 3.00106603 0.05)
(0.136374641 3.00121143 0.05)
(0.0454545742 3.00126502 0.05)
(8.9545538 2.99575293 0.05)
(8.86363 2.99571057 0.05)
(8.77276938 2.995543 0.05)
(8.68190938 2.99528543 0.05)
(8.59099734 2.99495251 0.05)
(8.50000913 2.99458009 0.05)
(8.40895813 2.99418158 0.05)
(8.31788047 2.99376232 0.05)
(8.22680367 2.99333248 0.05)
(8.13574125 2.9928958 0.05)
(8.04468958 2.99245479 0.05)
(7.95364195 2.99201261 0.05)
(7.86259346 2.99157207 0.05)
(7.77154796 2.99113476 0.05)
(7.68051784 2.99070325 0.05)
(7.58951568 2.99027898 0.05)
(7.49855276 2.98986403 0.05)
(7.40763069 2.9894601 0.05)
(7.31674562 2.98906774 0.05)
(7.22588999 2.98868785 0.05)
(7.13505452 2.98832094 0.05)
(7.04422723 2.98796809 0.05)
(6.95339908 2.98763019 0.05)
(6.86256766 2.98730769 0.05)
(6.77173296 2.98700087 0.05)
(6.6808949 2.98671004 0.05)
(6.5900535 2.98643528 0.05)
(6.49920867 2.98617661 0.05)
(6.40836059 2.9859338 0.05)
(6.31750922 2.98570656 0.05)
(6.22665462 2.98549456 0.05)
(6.13579688 2.98529742 0.05)
(6.04493616 2.98511469 0.05)
(5.95407254 2.98494592 0.05)
(5.86320622 2.98479063 0.05)
(5.7723373 2.98464848 0.05)
(5.681466 2.98451893 0.05)
(5.59059247 2.9844013 0.05)
(5.49971688 2.98429507 0.05)
(5.40883937 2.98419986 0.05)
(5.31796016 2.9841152 0.05)
(5.22707946 2.98404061 0.05)
(5.13619738 2.98397573 0.05)
(5.04531417 2.98392009 0.05)
(4.95442988 2.98387338 0.05)
(4.86354476 2.98383549 0.05)
(4.77265894 2.98380614 0.05)
(4.68177265 2.9837852 0.05)
(4.59088599 2.98377255 0.05)
(4.49999917 2.9837681 0.05)
(4.40911235 2.98377189 0.05)
(4.3182257 2.98378381 0.05)
(4.22733937 2.98380396 0.05)
(4.13645353 2.98383254 0.05)
(4.04556834 2.98386968 0.05)
(3.95468401 2.98391561 0.05)
(3.86380065 2.98397056 0.05)
(3.77291848 2.98403483 0.05)
(3.68203767 2.98410879 0.05)
(3.59115843 2.98419269 0.05)
(3.50028085 2.98428693 0.05)
(3.40940515 2.98439211 0.05)
(3.31853149 2.98450867 0.05)
(3.22766002 2.98463718 0.05)
(3.13679098 2.98477814 0.05)
(3.04592451 2.98493198 0.05)
(2.95506075 2.98509923 0.05)
(2.86419983 2.9852805 0.05)
(2.77334193 2.98547632 0.05)
(2.68248716 2.98568702 0.05)
(2.59163564 2.98591301 0.05)
(2.5007874 2.9861546 0.05)
(2.40994256 2.98641204 0.05)
(2.31910109 2.98668552 0.05)
(2.22826295 2.98697496 0.05)
(2.1374281 2.9872802 0.05)
(2.0465966 2.98760129 0.05)
(1.95576835 2.98793793 0.05)
(1.86494191 2.98828994 0.05)
(1.77410865 2.98865639 0.05)
(1.68325721 2.98903694 0.05)
(1.59237705 2.98943087 0.05)
(1.50146096 2.98983651 0.05)
(1.4105036 2.99025268 0.05)
(1.31950655 2.99067749 0.05)
(1.22847953 2.99110921 0.05)
(1.13743576 2.99154632 0.05)
(1.04638739 2.99198662 0.05)
(0.955340136 2.99242764 0.05)
(0.864289727 2.99286681 0.05)
(0.773230196 2.99330214 0.05)
(0.682155289 2.99373023 0.05)
(0.591074431 2.99414401 0.05)
(0.500018446 2.99453785 0.05)
(0.409016134 2.99490056 0.05)
(0.31809536 2.99522216 0.05)
(0.227232359 2.99548624 0.05)
(0.136369771 2.99566636 0.05)
(0.0454545799 2.99573278 0.05)
(8.95455227 2.98998475 0.05)
(8.86363448 2.98993131 0.05)
(8.77278809 2.98972684 0.05)
(8.68194443 2.98941596 0.05)
(8.59103453 2.98901669 0.05)
(8.50003035 2.98856917 0.05)
(8.40895063 2.98808945 0.05)
(8.31783732 2.9875844 0.05)
(8.22672462 2.98706613 0.05)
(8.13562891 2.98653924 0.05)
(8.04454595 2.98600682 0.05)
(7.95346751 2.98547264 0.05)
(7.8623878 2.98494007 0.05)
(7.77131152 2.9844112 0.05)
(7.68025371 2.98388911 0.05)
(7.58922991 2.98337566 0.05)
(7.49825365 2.98287333 0.05)
(7.40732729 2.9823842 0.05)
(7.31644597 2.98190896 0.05)
(7.22560066 2.98144876 0.05)
(7.13478002 2.98100424 0.05)
(7.04396946 2.98057666 0.05)
(6.95315796 2.98016708 0.05)
(6.86234256 2.97977609 0.05)
(6.77152327 2.97940405 0.05)
(6.68069997 2.97905131 0.05)
(6.58987267 2.978718 0.05)
(6.49904129 2.9784041 0.05)
(6.40820598 2.97810935 0.05)
(6.3173667 2.97783344 0.05)
(6.22652354 2.977576 0.05)
(6.13567661 2.97733656 0.05)
(6.04482607 2.9771146 0.05)
(5.95397206 2.97690957 0.05)
(5.86311477 2.97672089 0.05)
(5.77225435 2.97654811 0.05)
(5.68139106 2.97639058 0.05)
(5.59052507 2.97624753 0.05)
(5.49965659 2.97611833 0.05)
(5.40878581 2.97600247 0.05)
(5.31791297 2.97589941 0.05)
(5.22703829 2.97580858 0.05)
(5.13616196 2.97572956 0.05)
(5.04528424 2.97566182 0.05)
(4.95440524 2.975605 0.05)
(4.86352522 2.97555889 0.05)
(4.77264437 2.97552318 0.05)
(4.68176293 2.97549768 0.05)
(4.59088107 2.97548228 0.05)
(4.499999 2.97547685 0.05)
(4.40911694 2.97548143 0.05)
(4.31823506 2.97549594 0.05)
(4.22735359 2.97552046 0.05)
(4.13647271 2.97555524 0.05)
(4.04559262 2.97560043 0.05)
(3.95471356 2.9756563 0.05)
(3.86383569 2.97572315 0.05)
(3.77295926 2.97580132 0.05)
(3.68208446 2.97589128 0.05)
(3.59121154 2.97599335 0.05)
(3.50034065 2.97610806 0.05)
(3.40947203 2.97623606 0.05)
(3.31860589 2.97637787 0.05)
(3.22774242 2.97653416 0.05)
(3.13688186 2.97670554 0.05)
(3.0460244 2.97689255 0.05)
(2.9551702 2.97709583 0.05)
(2.86431943 2.97731608 0.05)
(2.77347231 2.97755393 0.05)
(2.68262894 2.97780981 0.05)
(2.59178949 2.97808421 0.05)
(2.50095399 2.9783775 0.05)
(2.41012255 2.97868998 0.05)
(2.31929517 2.97902185 0.05)
(2.22847178 2.97937301 0.05)
(2.13765233 2.97974327 0.05)
(2.04683685 2.98013265 0.05)
(1.95602525 2.98054079 0.05)
(1.86521568 2.98096742 0.05)
(1.77439776 2.98141147 0.05)
(1.68355745 2.98187246 0.05)
(1.59268218 2.98234952 0.05)
(1.50176304 2.98284066 0.05)
(1.41079369 2.98334441 0.05)
(1.31977608 2.9838585 0.05)
(1.22872212 2.9843808 0.05)
(1.13764791 2.98490945 0.05)
(1.04656839 2.98544174 0.05)
(0.955490434 2.98597467 0.05)
(0.864409017 2.98650518 0.05)
(0.773316734 2.98703081 0.05)
(0.682206368 2.98754748 0.05)
(0.591089589 2.98804675 0.05)
(0.500003348 2.98852169 0.05)
(0.408983432 2.98895896 0.05)
(0.318062078 2.98934648 0.05)
(0.227212413 2.98966456 0.05)
(0.136364272 2.98988165 0.05)
(0.045454567 2.98996173 0.05)
(8.95455032 2.98396843 0.05)
(8.86364015 2.98390225 0.05)
(8.77280894 2.98365809 0.05)
(8.68198168 2.98329076 0.05)
(8.59107412 2.98282202 0.05)
(8.50005321 2.9822956 0.05)
(8.40894306 2.98173033 0.05)
(8.31779203 2.98113482 0.05)
(8.22664118 2.98052318 0.05)
(8.13551008 2.97990097 0.05)
(8.04439379 2.97927191 0.05)
(7.95328251 2.9786404 0.05)
(7.86216952 2.97801045 0.05)
(7.77106045 2.97738465 0.05)
(7.67997313 2.97676666 0.05)
(7.58892626 2.97615876 0.05)
(7.49793575 2.97556391 0.05)