/*--------------------------------*- C++ -*----------------------------------*\
| =========                 |                                                 |
| \\      /  F ield         | OpenFOAM: The Open Source CFD Toolbox           |
|  \\    /   O peration     | Version:  2112                                  |
|   \\  /    A nd           | Website:  www.openfoam.com                      |
|    \\/     M anipulation  |                                                 |
\*---------------------------------------------------------------------------*/
FoamFile
{
    version     2.0;
    format      ascii;
    arch        "LSB;label=32;scalar=64";
    class       volScalarField;
    location    "9128";
    object      k_HF;
}
// * * * * * * * * * * * * * * * * * * * * * * * * * * * * * * * * * * * * * //

dimensions      [0 2 -2 0 0 0 0];

internalField   nonuniform List<scalar> 
14751
(
0.000000584029
0.000000586167
0.000000588484
0.000000590321
0.000000591791
0.000000593341
0.000000595446
0.000000597807
0.000000600221
0.000000602762
0.000000604965
0.000000606749
0.000000608772
0.000000610989
0.000000613441
0.000000616493
0.000000619573
0.000000622498
0.000000625320
0.000000627744
0.000000630323
0.000000633893
0.000000638347
0.000000643313
0.000000648316
0.000000653566
0.000000659017
0.000000665072
0.000000671243
0.000000676213
0.000000680925
0.000000686013
0.000000691687
0.000000697609
0.000000703339
0.000000708792
0.000000713918
0.000000718123
0.000000721474
0.000000724530
0.000000727787
0.000000732604
0.000000737028
0.000000739405
0.000000740581
0.000000739960
0.000000739742
0.000000739443
0.000000737525
0.000000734402
0.000000731320
0.000000728350
0.000000723768
0.000000717889
0.000000712229
0.000000707655
0.000000702440
0.000000696737
0.000000691619
0.000000686591
0.000000680768
0.000000673306
0.000000666095
0.000000659474
0.000000652655
0.000000647141
0.000000641525
0.000000635264
0.000000627805
0.000000621069
0.000000615411
0.000000609821
0.000000604315
0.000000598466
0.000000593385
0.000000588263
0.000000583814
0.000000579237
0.000000574593
0.000000570296
0.000000566721
0.000000564180
0.000000561993
0.000000560666
0.000000560204
0.000000560455
0.000000561111
0.000000561836
0.000000562613
0.000000564095
0.000000566300
0.000000568269
0.000000570080
0.000000571666
0.000000573454
0.000000575640
0.000000577857
0.000000579864
0.000000581855
0.000001778368
0.000001784880
0.000001791935
0.000001800481
0.000001807923
0.000001815627
0.000001825046
0.000001835274
0.000001845684
0.000001856512
0.000001866323
0.000001874862
0.000001884153
0.000001894073
0.000001904740
0.000001917305
0.000001929978
0.000001939089
0.000001951010
0.000001961704
0.000001972920
0.000001987262
0.000002001226
0.000002020016
0.000002038966
0.000002058742
0.000002075909
0.000002098311
0.000002117779
0.000002136838
0.000002151727
0.000002171243
0.000002189193
0.000002207935
0.000002229585
0.000002246871
0.000002263123
0.000002276445
0.000002290686
0.000002300374
0.000002310726
0.000002326019
0.000002340061
0.000002347612
0.000002351350
0.000002349373
0.000002348684
0.000002347728
0.000002341637
0.000002331725
0.000002321943
0.000002312501
0.000002297967
0.000002279306
0.000002261339
0.000002246805
0.000002230249
0.000002212139
0.000002195899
0.000002179921
0.000002158044
0.000002134377
0.000002111526
0.000002090533
0.000002068932
0.000002048210
0.000002030428
0.000002010619
0.000001983870
0.000001962582
0.000001941631
0.000001923990
0.000001903598
0.000001885178
0.000001866207
0.000001847158
0.000001833187
0.000001815919
0.000001798485
0.000001782183
0.000001771010
0.000001760248
0.000001750615
0.000001743675
0.000001739435
0.000001737407
0.000001736636
0.000001736070
0.000001735660
0.000001737410
0.000001741369
0.000001744584
0.000001747288
0.000001749297
0.000001751899
0.000001755700
0.000001762463
0.000001765683
0.000001771749
0.000003245615
0.000003252487
0.000003271223
0.000003287356
0.000003306942
0.000003332060
0.000003354848
0.000003384251
0.000003413879
0.000003444169
0.000003473232
0.000003500729
0.000003524807
0.000003555216
0.000003587320
0.000003617282
0.000003652458
0.000003682125
0.000003716683
0.000003746448
0.000003776728
0.000003812119
0.000003852446
0.000003896044
0.000003933465
0.000003978368
0.000004019784
0.000004065179
0.000004110971
0.000004151956
0.000004190808
0.000004228987
0.000004274399
0.000004315865
0.000004353941
0.000004392277
0.000004428672
0.000004460904
0.000004487965
0.000004514013
0.000004536276
0.000004571342
0.000004596213
0.000004618880
0.000004630230
0.000004639325
0.000004641674
0.000004644582
0.000004639544
0.000004629218
0.000004617707
0.000004605271
0.000004586818
0.000004561323
0.000004528525
0.000004506564
0.000004475704
0.000004448575
0.000004418391
0.000004394533
0.000004360519
0.000004319863
0.000004279914
0.000004240666
0.000004199908
0.000004165430
0.000004129673
0.000004085094
0.000004042151
0.000003996059
0.000003953491
0.000003911461
0.000003869190
0.000003824127
0.000003778040
0.000003736957
0.000003696203
0.000003654552
0.000003617293
0.000003571369
0.000003533677
0.000003501955
0.000003467566
0.000003441563
0.000003414745
0.000003396326
0.000003375198
0.000003354606
0.000003334287
0.000003317469
0.000003302596
0.000003287381
0.000003277225
0.000003261308
0.000003251018
0.000003242368
0.000003234820
0.000003236082
0.000003238180
0.000005506413
0.000005505601
0.000005518886
0.000005540791
0.000005565978
0.000005597723
0.000005637866
0.000005681693
0.000005725878
0.000005771232
0.000005821770
0.000005867353
0.000005915761
0.000005967595
0.000006022480
0.000006080250
0.000006133581
0.000006186900
0.000006243006
0.000006302784
0.000006363297
0.000006425175
0.000006494821
0.000006567865
0.000006640868
0.000006709989
0.000006782028
0.000006854339
0.000006935442
0.000007009042
0.000007076998
0.000007152846
0.000007225236
0.000007299140
0.000007370241
0.000007435933
0.000007498072
0.000007553015
0.000007600997
0.000007650522
0.000007698892
0.000007756224
0.000007802029
0.000007838572
0.000007863503
0.000007889488
0.000007904350
0.000007923515
0.000007929844
0.000007931144
0.000007927540
0.000007918047
0.000007901984
0.000007882459
0.000007848506
0.000007824894
0.000007792336
0.000007758018
0.000007720515
0.000007689982
0.000007647348
0.000007601049
0.000007554057
0.000007503061
0.000007447623
0.000007390804
0.000007333974
0.000007274354
0.000007212508
0.000007145541
0.000007079579
0.000007012493
0.000006938042
0.000006859451
0.000006783622
0.000006709633
0.000006639615
0.000006569836
0.000006498720
0.000006424668
0.000006352705
0.000006287221
0.000006226987
0.000006163614
0.000006105353
0.000006055908
0.000005997906
0.000005946578
0.000005895297
0.000005846043
0.000005798249
0.000005750579
0.000005702370
0.000005654102
0.000005609926
0.000005573641
0.000005545490
0.000005525253
0.000005516695
0.000007703293
0.000007689558
0.000007689309
0.000007698710
0.000007716084
0.000007740079
0.000007773511
0.000007809895
0.000007847722
0.000007890637
0.000007935729
0.000007983049
0.000008031343
0.000008087943
0.000008147520
0.000008211125
0.000008274289
0.000008336810
0.000008406172
0.000008475698
0.000008553228
0.000008630607
0.000008721499
0.000008807032
0.000008897579
0.000008981635
0.000009074445
0.000009170197
0.000009265463
0.000009365503
0.000009461183
0.000009558559
0.000009655554
0.000009753666
0.000009849058
0.000009937548
0.000010029524
0.000010110330
0.000010180565
0.000010249454
0.000010325681
0.000010394848
0.000010462585
0.000010520127
0.000010568481
0.000010615236
0.000010654136
0.000010692407
0.000010724365
0.000010748497
0.000010765509
0.000010775626
0.000010775240
0.000010768884
0.000010752508
0.000010733719
0.000010707254
0.000010680127
0.000010653635
0.000010627040
0.000010591620
0.000010552493
0.000010506859
0.000010458171
0.000010392979
0.000010330930
0.000010264154
0.000010189173
0.000010115586
0.000010030231
0.000009947276
0.000009852911
0.000009759479
0.000009652868
0.000009550439
0.000009447673
0.000009352767
0.000009260303
0.000009159458
0.000009060289
0.000008961597
0.000008867401
0.000008776159
0.000008689650
0.000008603538
0.000008523956
0.000008444016
0.000008366695
0.000008294186
0.000008216537
0.000008143471
0.000008076279
0.000008009316
0.000007940091
0.000007880403
0.000007829556
0.000007783429
0.000007750199
0.000007725429
0.000009179995
0.000009153091
0.000009142047
0.000009149797
0.000009171531
0.000009203562
0.000009249478
0.000009299756
0.000009356386
0.000009416487
0.000009482847
0.000009550335
0.000009623091
0.000009703873
0.000009789697
0.000009883513
0.000009976209
0.000010070498
0.000010170693
0.000010274081
0.000010380463
0.000010493733
0.000010606130
0.000010706101
0.000010804437
0.000010901504
0.000011004370
0.000011112903
0.000011225889
0.000011340198
0.000011454417
0.000011573264
0.000011693655
0.000011810347
0.000011922773
0.000012035768
0.000012147359
0.000012249570
0.000012344467
0.000012436892
0.000012532827
0.000012625799
0.000012709678
0.000012787614
0.000012857946
0.000012929172
0.000012993577
0.000013054785
0.000013116444
0.000013167833
0.000013212372
0.000013242062
0.000013266336
0.000013280832
0.000013284128
0.000013277378
0.000013266315
0.000013252251
0.000013237860
0.000013220775
0.000013199095
0.000013169975
0.000013136606
0.000013093112
0.000013037723
0.000012972701
0.000012904713
0.000012829439
0.000012747346
0.000012658651
0.000012559444
0.000012454333
0.000012342827
0.000012228958
0.000012111994
0.000011998158
0.000011890381
0.000011766477
0.000011624479
0.000011478536
0.000011333524
0.000011187185
0.000011044869
0.000010904120
0.000010764982
0.000010628161
0.000010494112
0.000010362423
0.000010233273
0.000010103056
0.000009978130
0.000009855787
0.000009737379
0.000009619961
0.000009513522
0.000009420497
0.000009340358
0.000009272628
0.000009224339
0.000010462367
0.000010415048
0.000010383837
0.000010364462
0.000010358213
0.000010365002
0.000010383482
0.000010411312
0.000010446372
0.000010488003
0.000010536763
0.000010587986
0.000010650876
0.000010720663
0.000010798488
0.000010883915
0.000010975276
0.000011070265
0.000011167201
0.000011271758
0.000011384426
0.000011502878
0.000011623555
0.000011750617
0.000011878151
0.000012003896
0.000012133806
0.000012267131
0.000012406552
0.000012547547
0.000012689270
0.000012834914
0.000012985360
0.000013129042
0.000013267764
0.000013406066
0.000013540400
0.000013665591
0.000013787940
0.000013908047
0.000014028733
0.000014146078
0.000014255318
0.000014357980
0.000014451292
0.000014545634
0.000014631086
0.000014716080
0.000014801772
0.000014875941
0.000014942316
0.000014997705
0.000015039464
0.000015067368
0.000015085895
0.000015089258
0.000015084923
0.000015075762
0.000015062035
0.000015045952
0.000015022874
0.000014991401
0.000014950132
0.000014898732
0.000014831991
0.000014754368
0.000014664332
0.000014561281
0.000014448731
0.000014323925
0.000014190579
0.000014047239
0.000013898603
0.000013747254
0.000013592113
0.000013437291
0.000013289004
0.000013137365
0.000012982725
0.000012826515
0.000012669785
0.000012517082
0.000012361752
0.000012216533
0.000012072514
0.000011933135
0.000011795361
0.000011663404
0.000011538173
0.000011411748
0.000011288135
0.000011168005
0.000011051154
0.000010937832
0.000010835171
0.000010739479
0.000010654769
0.000010579803
0.000010518113
0.000011080542
0.000011029827
0.000010998650
0.000010984949
0.000010989100
0.000011008639
0.000011041454
0.000011082733
0.000011136521
0.000011199016
0.000011268190
0.000011317630
0.000011375261
0.000011442851
0.000011520781
0.000011604927
0.000011695722
0.000011793260
0.000011898106
0.000012006751
0.000012126291
0.000012248337
0.000012377062
0.000012508895
0.000012640695
0.000012777565
0.000012916055
0.000013058235
0.000013203730
0.000013353225
0.000013505750
0.000013660955
0.000013818620
0.000013977020
0.000014129340
0.000014276405
0.000014418515
0.000014553715
0.000014689015
0.000014821045
0.000014955885
0.000015088350
0.000015212195
0.000015327590
0.000015438330
0.000015545020
0.000015640625
0.000015736700
0.000015831695
0.000015919380
0.000015998075
0.000016064865
0.000016116735
0.000016151890
0.000016172295
0.000016180100
0.000016176520
0.000016167540
0.000016152805
0.000016130932
0.000016099741
0.000016061653
0.000016014269
0.000015954365
0.000015876898
0.000015788026
0.000015683710
0.000015566906
0.000015436784
0.000015298048
0.000015148782
0.000014993836
0.000014836972
0.000014676498
0.000014515770
0.000014350585
0.000014194350
0.000014035669
0.000013874951
0.000013715290
0.000013554590
0.000013400578
0.000013246780
0.000013100685
0.000012956708
0.000012818803
0.000012685568
0.000012554701
0.000012428920
0.000012269673
0.000012109793
0.000011954520
0.000011805336
0.000011661893
0.000011530334
0.000011412292
0.000011305754
0.000011216049
0.000011143093
0.000011463393
0.000011411093
0.000011373445
0.000011348749
0.000011340392
0.000011346387
0.000011366039
0.000011395278
0.000011436429
0.000011487576
0.000011549438
0.000011617889
0.000011695234
0.000011784444
0.000011880650
0.000011984700
0.000012097015
0.000012216940
0.000012335380
0.000012455515
0.000012583275
0.000012714175
0.000012849595
0.000012988960
0.000013129755
0.000013274990
0.000013422635
0.000013574660
0.000013729870
0.000013884925
0.000014045050
0.000014208615
0.000014374015
0.000014537350
0.000014699620
0.000014855310
0.000015002640
0.000015147875
0.000015293130
0.000015435200
0.000015577200
0.000015717775
0.000015849650
0.000015974925
0.000016096810
0.000016211285
0.000016312140
0.000016413620
0.000016509370
0.000016596060
0.000016676265
0.000016743245
0.000016795935
0.000016828000
0.000016843205
0.000016845150
0.000016835570
0.000016819075
0.000016792830
0.000016757270
0.000016712275
0.000016659290
0.000016595970
0.000016515265
0.000016424735
0.000016311910
0.000016190580
0.000016057139
0.000015912336
0.000015757786
0.000015594990
0.000015427039
0.000015255108
0.000015085575
0.000014914337
0.000014745077
0.000014576019
0.000014410194
0.000014242127
0.000014075295
0.000013910741
0.000013742593
0.000013559884
0.000013385686
0.000013216589
0.000013056371
0.000012902434
0.000012754104
0.000012611462
0.000012473085
0.000012341745
0.000012214836
0.000012091660
0.000011974930
0.000011865288
0.000011765803
0.000011675007
0.000011593790
0.000011524619
0.000011612686
0.000011568924
0.000011540900
0.000011527758
0.000011525387
0.000011532149
0.000011550354
0.000011580615
0.000011622020
0.000011674205
0.000011733820
0.000011803775
0.000011883145
0.000011971930
0.000012068105
0.000012172860
0.000012285465
0.000012406015
0.000012535930
0.000012673830
0.000012817045
0.000012963160
0.000013113930
0.000013264535
0.000013412925
0.000013566790
0.000013722905
0.000013882095
0.000014043065
0.000014202755
0.000014368920
0.000014540185
0.000014709660
0.000014875215
0.000015039965
0.000015201490
0.000015355450
0.000015506355
0.000015656385
0.000015802940
0.000015947480
0.000016087190
0.000016221895
0.000016354310
0.000016479820
0.000016592715
0.000016695710
0.000016792970
0.000016881020
0.000016958505
0.000017030825
0.000017087890
0.000017127285
0.000017147235
0.000017150295
0.000017138935
0.000017117035
0.000017082915
0.000017042330
0.000016985690
0.000016920985
0.000016847075
0.000016761650
0.000016655945
0.000016537540
0.000016406060
0.000016265435
0.000016114185
0.000015951245
0.000015780920
0.000015604525
0.000015423925
0.000015243640
0.000015065385
0.000014887360
0.000014711497
0.000014531120
0.000014344429
0.000014157850
0.000013975866
0.000013799712
0.000013630117
0.000013465981
0.000013308554
0.000013159225
0.000013017698
0.000012882293
0.000012753230
0.000012629570
0.000012510551
0.000012397020
0.000012288365
0.000012182693
0.000012081970
0.000011987972
0.000011901169
0.000011811225
0.000011732317
0.000011667580
0.000011590600
0.000011557300
0.000011535455
0.000011526490
0.000011533330
0.000011552670
0.000011584755
0.000011628935
0.000011682815
0.000011746050
0.000011811075
0.000011884830
0.000011969650
0.000012063270
0.000012163515
0.000012271980
0.000012388460
0.000012515850
0.000012649255
0.000012790360
0.000012934265
0.000013081710
0.000013233775
0.000013390960
0.000013551450
0.000013715935
0.000013882420
0.000014046185
0.000014207835
0.000014370970
0.000014541755
0.000014716495
0.000014888300
0.000015054495
0.000015219785
0.000015382905
0.000015539120
0.000015691805
0.000015840835
0.000015987810
0.000016128750
0.000016262020
0.000016393955
0.000016525970
0.000016646830
0.000016750755
0.000016847605
0.000016932805
0.000017007595
0.000017071595
0.000017127055
0.000017167310
0.000017187705
0.000017184310
0.000017167345
0.000017138910
0.000017101675
0.000017047495
0.000016980145
0.000016899275
0.000016816090
0.000016719215
0.000016608310
0.000016478515
0.000016335495
0.000016185610
0.000016024745
0.000015857480
0.000015680995
0.000015498815
0.000015310845
0.000015121930
0.000014935465
0.000014746755
0.000014561990
0.000014380870
0.000014203645
0.000014026780
0.000013853660
0.000013684680
0.000013522810
0.000013366575
0.000013217905
0.000013074905
0.000012939895
0.000012813050
0.000012692470
0.000012577845
0.000012468225
0.000012363845
0.000012257340
0.000012155541
0.000012058755
0.000011967539
0.000011885186
0.000011811335
0.000011743714
0.000011684507
0.000011631993
0.000011519615
0.000011499205
0.000011489585
0.000011490815
0.000011504415
0.000011529090
0.000011565225
0.000011611975
0.000011667675
0.000011731695
0.000011805920
0.000011890685
0.000011985585
0.000012085345
0.000012192410
0.000012306700
0.000012429705
0.000012561000
0.000012698435
0.000012840905
0.000012985085
0.000013134370
0.000013290070
0.000013449515
0.000013611680
0.000013777315
0.000013944995
0.000014111450
0.000014273860
0.000014437975
0.000014610055
0.000014785365
0.000014956335
0.000015123935
0.000015288030
0.000015447415
0.000015602225
0.000015752230
0.000015896850
0.000016037530
0.000016173430
0.000016296500
0.000016420245
0.000016540820
0.000016647420
0.000016736655
0.000016818145
0.000016885730
0.000016945065
0.000016992940
0.000017027660
0.000017041875
0.000017036015
0.000017012585
0.000016972105
0.000016923855
0.000016863910
0.000016787615
0.000016697525
0.000016598400
0.000016493665
0.000016375250
0.000016239490
0.000016089450
0.000015929855
0.000015761420
0.000015587405
0.000015403825
0.000015218850
0.000015031185
0.000014840165
0.000014649035
0.000014463195
0.000014283840
0.000014109580
0.000013939790
0.000013773040
0.000013607860
0.000013447750
0.000013292095
0.000013143720
0.000013001585
0.000012866925
0.000012737225
0.000012615365
0.000012501755
0.000012394550
0.000012293040
0.000012196160
0.000012106035
0.000012022810
0.000011945625
0.000011870765
0.000011802190
0.000011739355
0.000011682710
0.000011632910
0.000011588600
0.000011551205
0.000011407265
0.000011400805
0.000011403500
0.000011416590
0.000011440195
0.000011473850
0.000011516495
0.000011567785
0.000011627600
0.000011696250
0.000011774845
0.000011863215
0.000011960385
0.000012065755
0.000012180215
0.000012301835
0.000012430860
0.000012565350
0.000012704510
0.000012847450
0.000012993175
0.000013144520
0.000013301360
0.000013462040
0.000013624650
0.000013790130
0.000013956845
0.000014119080
0.000014279375
0.000014444475
0.000014614860
0.000014785705
0.000014952975
0.000015116045
0.000015275040
0.000015427225
0.000015576745
0.000015720890
0.000015857330
0.000015987860
0.000016111840
0.000016225585
0.000016335270
0.000016436690
0.000016521290
0.000016590845
0.000016653855
0.000016701950
0.000016740430
0.000016766895
0.000016775940
0.000016767810
0.000016737280
0.000016690705
0.000016629955
0.000016560125
0.000016478015
0.000016381880
0.000016271845
0.000016158590
0.000016034450
0.000015894990
0.000015740195
0.000015576090
0.000015404215
0.000015227855
0.000015043400
0.000014853135
0.000014664975
0.000014477550
0.000014294310
0.000014114195
0.000013939255
0.000013771220
0.000013609530
0.000013452270
0.000013295875
0.000013144425
0.000012998190
0.000012856700
0.000012721360
0.000012593130
0.000012472895
0.000012359180
0.000012252785
0.000012155980
0.000012067470
0.000011984380
0.000011906065
0.000011834905
0.000011770880
0.000011710870
0.000011654770
0.000011601010
0.000011554525
0.000011513525
0.000011478375
0.000011448890
0.000011424480
0.000011288455
0.000011293510
0.000011305280
0.000011327230
0.000011359460
0.000011399740
0.000011448840
0.000011506445
0.000011571380
0.000011645385
0.000011729115
0.000011822580
0.000011923710
0.000012033010
0.000012150765
0.000012277095
0.000012409895
0.000012545460
0.000012685190
0.000012828115
0.000012975120
0.000013126110
0.000013282160
0.000013440825
0.000013602305
0.000013764595
0.000013925990
0.000014083505
0.000014242555
0.000014407950
0.000014572510
0.000014735260
0.000014893755
0.000015046955
0.000015195505
0.000015339290
0.000015479170
0.000015612420
0.000015737450
0.000015855740
0.000015965000
0.000016064940
0.000016157720
0.000016233875
0.000016293475
0.000016342685
0.000016382940
0.000016414560
0.000016427635
0.000016429025
0.000016414770
0.000016381345
0.000016331230
0.000016265560
0.000016187490
0.000016098670
0.000015998115
0.000015884810
0.000015762610
0.000015634990
0.000015494125
0.000015339655
0.000015174140
0.000015001310
0.000014822880
0.000014642370
0.000014454715
0.000014269310
0.000014086915
0.000013908000
0.000013736100
0.000013568890
0.000013406730
0.000013251870
0.000013105570
0.000012960175
0.000012818650
0.000012680180
0.000012549595
0.000012423035
0.000012303515
0.000012191655
0.000012086050
0.000011992455
0.000011905690
0.000011826080
0.000011754910
0.000011686155
0.000011625005
0.000011568605
0.000011518270
0.000011472490
0.000011429890
0.000011393710
0.000011363615
0.000011338905
0.000011319045
0.000011303640
0.000011290735
0.000011171410
0.000011188190
0.000011209470
0.000011240290
0.000011278925
0.000011324605
0.000011378585
0.000011440315
0.000011510485
0.000011590630
0.000011679565
0.000011776705
0.000011882020
0.000011994855
0.000012115495
0.000012242690
0.000012374725
0.000012511110
0.000012650560
0.000012793220
0.000012939885
0.000013089280
0.000013242320
0.000013396050
0.000013552795
0.000013708820
0.000013862685
0.000014017335
0.000014174400
0.000014333105
0.000014490915
0.000014643550
0.000014789955
0.000014931065
0.000015066765
0.000015197890
0.000015324715
0.000015440130
0.000015552485
0.000015656355
0.000015750985
0.000015832230
0.000015900690
0.000015951635
0.000015987775
0.000016016180
0.000016040945
0.000016048395
0.000016039025
0.000016016450
0.000015980455
0.000015928435
0.000015860860
0.000015777310
0.000015684085
0.000015582220
0.000015468740
0.000015344630
0.000015211925
0.000015072400
0.000014917925
0.000014755830
0.000014587330
0.000014412370
0.000014234600
0.000014053125
0.000013871600
0.000013696245
0.000013526050
0.000013359465
0.000013197820
0.000013044695
0.000012897730
0.000012759510
0.000012626285
0.000012495255
0.000012369155
0.000012247410
0.000012129315
0.000012019535
0.000011917005
0.000011820745
0.000011734925
0.000011659560
0.000011589480
0.000011525825
0.000011468100
0.000011415550
0.000011365530
0.000011322195
0.000011283380
0.000011249895
0.000011224395
0.000011203340
0.000011187845
0.000011175110
0.000011167495
0.000011163105
0.000011164140
0.000011064545
0.000011089040
0.000011119795
0.000011158430
0.000011203010
0.000011253960
0.000011311885
0.000011378300
0.000011452910
0.000011537415
0.000011631600
0.000011733270
0.000011841370
0.000011956430
0.000012078620
0.000012205625
0.000012335955
0.000012469550
0.000012606290
0.000012746735
0.000012891375
0.000013038880
0.000013187210
0.000013334910
0.000013482730
0.000013629925
0.000013777995
0.000013927885
0.000014077825
0.000014226570
0.000014374635
0.000014514705
0.000014646785
0.000014773310
0.000014893755
0.000015012925
0.000015120660
0.000015219390
0.000015317435
0.000015402370
0.000015477065
0.000015539545
0.000015585050
0.000015612355
0.000015628565
0.000015640865
0.000015644770
0.000015631605
0.000015600270
0.000015559410
0.000015504595
0.000015434420
0.000015350450
0.000015256200
0.000015149625
0.000015037890
0.000014913055
0.000014780690
0.000014643050
0.000014494855
0.000014335685
0.000014173755
0.000014008625
0.000013838180
0.000013664910
0.000013488930
0.000013320220
0.000013157860
0.000013001565
0.000012848480
0.000012701805
0.000012561590
0.000012432525
0.000012311005
0.000012190550
0.000012074200
0.000011963590
0.000011858315
0.000011756835
0.000011662520
0.000011575635
0.000011495470
0.000011428150
0.000011367590
0.000011313275
0.000011264135
0.000011218860
0.000011176935
0.000011140230
0.000011106090
0.000011079365
0.000011057070
0.000011041140
0.000011033220
0.000011027115
0.000011026400
0.000011028340
0.000011034835
0.000011045720
0.000010968505
0.000011000790
0.000011039280
0.000011084940
0.000011134860
0.000011190465
0.000011253820
0.000011324790
0.000011403925
0.000011492560
0.000011590720
0.000011694555
0.000011803470
0.000011919005
0.000012039685
0.000012164125
0.000012290450
0.000012419785
0.000012552855
0.000012689955
0.000012831310
0.000012974910
0.000013117430
0.000013258430
0.000013396265
0.000013535320
0.000013676310
0.000013816750
0.000013957515
0.000014096620
0.000014228680
0.000014352900
0.000014469550
0.000014581285
0.000014689255
0.000014788440
0.000014876980
0.000014963100
0.000015039875
0.000015105640
0.000015161130
0.000015202695
0.000015226845
0.000015237280
0.000015238500
0.000015233965
0.000015214535
0.000015178910
0.000015133570
0.000015076990
0.000015005615
0.000014919460
0.000014824195
0.000014716535
0.000014604640
0.000014483525
0.000014352360
0.000014215205
0.000014073345
0.000013923875
0.000013769295
0.000013614135
0.000013454240
0.000013290955
0.000013126690
0.000012964140
0.000012812685
0.000012666390
0.000012524930
0.000012387530
0.000012257600
0.000012133990
0.000012019430
0.000011909570
0.000011802440
0.000011701315
0.000011608285
0.000011517875
0.000011434000
0.000011356710
0.000011286075
0.000011221280
0.000011166595
0.000011120125
0.000011079470
0.000011040690
0.000011006195
0.000010975510
0.000010947230
0.000010922975
0.000010904675
0.000010891750
0.000010884095
0.000010884540
0.000010888195
0.000010896275
0.000010906385
0.000010921300
0.000010941850
0.000010889735
0.000010927700
0.000010971655
0.000011022120
0.000011077300
0.000011137485
0.000011204885
0.000011279610
0.000011362605
0.000011454030
0.000011553805
0.000011657835
0.000011766075
0.000011879625
0.000011996240
0.000012115405
0.000012236375
0.000012362260
0.000012492150
0.000012625485
0.000012762210
0.000012898950
0.000013032465
0.000013163295
0.000013293705
0.000013423665
0.000013554140
0.000013686015
0.000013816950
0.000013940805
0.000014055945
0.000014161560
0.000014265025
0.000014363465
0.000014456655
0.000014536920
0.000014609025
0.000014676690
0.000014730325
0.000014776640
0.000014811585
0.000014833375
0.000014840795
0.000014835815
0.000014824125
0.000014799770
0.000014758670
0.000014707925
0.000014652255
0.000014582290
0.000014496090
0.000014397825
0.000014292530
0.000014179905
0.000014062950
0.000013935815
0.000013803665
0.000013666505
0.000013525540
0.000013380785
0.000013234850
0.000013086260
0.000012933225
0.000012781060
0.000012631255
0.000012489625
0.000012353440
0.000012223530
0.000012097920
0.000011978610
0.000011866605
0.000011759845
0.000011658730
0.000011559335
0.000011464855
0.000011379140
0.000011301050
0.000011227590
0.000011160020
0.000011098080
0.000011042460
0.000010992130
0.000010948635
0.000010913555
0.000010882045
0.000010852600
0.000010826580
0.000010804185
0.000010783655
0.000010768195
0.000010757600
0.000010752125
0.000010753500
0.000010759795
0.000010772050
0.000010787150
0.000010805635
0.000010829980
0.000010857365
0.000010823150
0.000010866535
0.000010915280
0.000010968300
0.000011027320
0.000011092135
0.000011162620
0.000011240155
0.000011325070
0.000011417240
0.000011515810
0.000011618310
0.000011724745
0.000011834735
0.000011946740
0.000012059185
0.000012176340
0.000012298860
0.000012425105
0.000012553635
0.000012682635
0.000012808275
0.000012930665
0.000013052030
0.000013172555
0.000013292980
0.000013414160
0.000013535855
0.000013651855
0.000013758980
0.000013856755
0.000013948905
0.000014039210
0.000014122915
0.000014198505
0.000014261185
0.000014315655
0.000014360760
0.000014395600
0.000014423675
0.000014438660
0.000014442950
0.000014433450
0.000014414880
0.000014387135
0.000014346630
0.000014293935
0.000014237080
0.000014169895
0.000014087750
0.000013989940
0.000013885545
0.000013775455
0.000013661045
0.000013542020
0.000013417430
0.000013289155
0.000013157670
0.000013023600
0.000012885575
0.000012747515
0.000012605130
0.000012461715
0.000012322535
0.000012187620
0.000012063800
0.000011944310
0.000011829365
0.000011721150
0.000011620790
0.000011524745
0.000011435670
0.000011347060
0.000011261670
0.000011180555
0.000011104880
0.000011040160
0.000010982290
0.000010928805
0.000010881080
0.000010839240
0.000010802470
0.000010767980
0.000010741135
0.000010717380
0.000010696060
0.000010677720
0.000010661255
0.000010646715
0.000010639845
0.000010636445
0.000010638675
0.000010645500
0.000010658815
0.000010676150
0.000010697675
0.000010724435
0.000010753555
0.000010785685
0.000010766585
0.000010814310
0.000010866075
0.000010921710
0.000010982910
0.000011050005
0.000011122845
0.000011202400
0.000011287910
0.000011378825
0.000011473995
0.000011573315
0.000011676955
0.000011782670
0.000011889860
0.000011998180
0.000012112135
0.000012230475
0.000012350405
0.000012470160
0.000012588265
0.000012702135
0.000012815160
0.000012928630
0.000013040200
0.000013150815
0.000013260170
0.000013365560
0.000013464070
0.000013553335
0.000013636995
0.000013717935
0.000013791840
0.000013858490
0.000013915180
0.000013960875
0.000013996375
0.000014025290
0.000014046695
0.000014057260
0.000014056720
0.000014039920
0.000014015370
0.000013982605
0.000013941670
0.000013890600
0.000013833435
0.000013769770
0.000013692165
0.000013599580
0.000013497805
0.000013393120
0.000013283235
0.000013169450
0.000013053150
0.000012932980
0.000012811250
0.000012688565