/*--------------------------------*- C++ -*----------------------------------*\
| =========                 |                                                 |
| \\      /  F ield         | OpenFOAM: The Open Source CFD Toolbox           |
|  \\    /   O peration     | Version:  2112                                  |
|   \\  /    A nd           | Website:  www.openfoam.com                      |
|    \\/     M anipulation  |                                                 |
\*---------------------------------------------------------------------------*/
FoamFile
{
    version     2.0;
    format      ascii;
    arch        "LSB;label=32;scalar=64";
    class       volScalarField;
    location    "2488";
    object      k_KOSST;
}
// * * * * * * * * * * * * * * * * * * * * * * * * * * * * * * * * * * * * * //

dimensions      [0 2 -2 0 0 0 0];

internalField   nonuniform List<scalar> 
14751
(
7.4401885e-08
7.38386374e-08
7.38451226e-08
7.31246534e-08
7.2518721e-08
7.15107465e-08
7.0329501e-08
6.89869268e-08
6.74481637e-08
6.57849394e-08
6.40145354e-08
6.21632883e-08
6.02492232e-08
5.83171726e-08
5.63821851e-08
5.44704323e-08
5.26013141e-08
5.0779383e-08
4.90263789e-08
4.73454691e-08
4.57522516e-08
4.42416827e-08
4.28184621e-08
4.14859453e-08
4.02475926e-08
3.90956259e-08
3.80297837e-08
3.70473246e-08
3.6145212e-08
3.53242007e-08
3.45807672e-08
3.39117813e-08
3.33142809e-08
3.27855275e-08
3.23239436e-08
3.19243705e-08
3.1583356e-08
3.13021126e-08
3.10783496e-08
3.09080321e-08
3.07873667e-08
3.07195609e-08
3.07019805e-08
3.07338522e-08
3.08142024e-08
3.09367748e-08
3.11015857e-08
3.13086439e-08
3.1558707e-08
3.18516668e-08
3.21854553e-08
3.25610023e-08
3.29779769e-08
3.34337277e-08
3.39283648e-08
3.44605039e-08
3.50293192e-08
3.56339966e-08
3.62720325e-08
3.6945784e-08
3.76551318e-08
3.83958655e-08
3.91689444e-08
3.99667608e-08
4.07869997e-08
4.16330426e-08
4.25029022e-08
4.33934861e-08
4.43018233e-08
4.5230147e-08
4.61757764e-08
4.71380466e-08
4.81162267e-08
4.91086093e-08
5.01159747e-08
5.11382243e-08
5.21736364e-08
5.32237295e-08
5.4287964e-08
5.53696156e-08
5.6468697e-08
5.75799674e-08
5.871382e-08
5.98587698e-08
6.10205809e-08
6.21970849e-08
6.33837502e-08
6.45732991e-08
6.57608417e-08
6.6941459e-08
6.80960127e-08
6.92076876e-08
7.02846711e-08
7.12592802e-08
7.21531482e-08
7.29385614e-08
7.34154233e-08
7.36716696e-08
7.43290251e-08
4.99775107e-08
4.93099077e-08
4.90834228e-08
4.8673565e-08
4.8312458e-08
4.79055805e-08
4.74322085e-08
4.69382708e-08
4.63970303e-08
4.58331183e-08
4.5244111e-08
4.46428938e-08
4.40295409e-08
4.34147023e-08
4.28086927e-08
4.22097469e-08
4.16361899e-08
4.10756298e-08
4.05431674e-08
4.003588e-08
3.95647355e-08
3.91259009e-08
3.8720911e-08
3.83499464e-08
3.80178605e-08
3.77187766e-08
3.74514648e-08
3.72160212e-08
3.70101648e-08
3.68367217e-08
3.66958779e-08
3.65857038e-08
3.65049814e-08
3.64531702e-08
3.64310829e-08
3.64352641e-08
3.64614864e-08
3.65156871e-08
3.65935479e-08
3.66941725e-08
3.68148918e-08
3.69586247e-08
3.71260501e-08
3.73143952e-08
3.75236927e-08
3.77472014e-08
3.79801171e-08
3.82192483e-08
3.84677043e-08
3.87305685e-08
3.90070253e-08
3.92967327e-08
3.95998691e-08
3.99138783e-08
4.02377959e-08
4.05707874e-08
4.09114845e-08
4.1259217e-08
4.16127458e-08
4.19729656e-08
4.23412155e-08
4.27137513e-08
4.30888514e-08
4.34612204e-08
4.38281417e-08
4.41928516e-08
4.45544942e-08
4.49114342e-08
4.52613903e-08
4.56063615e-08
4.59460238e-08
4.62794259e-08
4.66063975e-08
4.69257656e-08
4.72380708e-08
4.75425442e-08
4.78349023e-08
4.81149619e-08
4.83901467e-08
4.8651695e-08
4.8907337e-08
4.91454907e-08
4.93755697e-08
4.95908119e-08
4.97929245e-08
4.99834422e-08
5.01659349e-08
5.03318985e-08
5.04833126e-08
5.06160415e-08
5.07350496e-08
5.0822698e-08
5.08831789e-08
5.09096977e-08
5.0860995e-08
5.07868283e-08
5.05632648e-08
5.02138368e-08
4.99065863e-08
2.89163891e-07
2.85281053e-07
2.84333252e-07
2.83389718e-07
2.82997013e-07
2.82812526e-07
2.82439511e-07
2.82116353e-07
2.81661577e-07
2.81158341e-07
2.80555494e-07
2.79908324e-07
2.79199524e-07
2.78438218e-07
2.77671191e-07
2.76863746e-07
2.76119947e-07
2.7534883e-07
2.746397e-07
2.73969374e-07
2.73402668e-07
2.72923423e-07
2.7253925e-07
2.72247822e-07
2.72080745e-07
2.72015295e-07
2.72049811e-07
2.72188861e-07
2.72424123e-07
2.72775037e-07
2.73250319e-07
2.73841296e-07
2.74544353e-07
2.75361545e-07
2.76305082e-07
2.77355557e-07
2.78488083e-07
2.79749917e-07
2.81108539e-07
2.82566233e-07
2.84115424e-07
2.85746567e-07
2.87462292e-07
2.89264431e-07
2.91153179e-07
2.9308427e-07
2.95016603e-07
2.96921304e-07
2.98823914e-07
3.007694e-07
3.02752128e-07
3.04765407e-07
3.06810106e-07
3.08867912e-07
3.10929183e-07
3.12986363e-07
3.15026677e-07
3.17043299e-07
3.1902532e-07
3.20968502e-07
3.22880537e-07
3.24732013e-07
3.26508029e-07
3.28183845e-07
3.29732778e-07
3.3116697e-07
3.32478299e-07
3.33656678e-07
3.34682802e-07
3.35563971e-07
3.36297632e-07
3.3687418e-07
3.37290776e-07
3.37537397e-07
3.37617679e-07
3.37526058e-07
3.37227026e-07
3.36717377e-07
3.3606128e-07
3.35186149e-07
3.34157852e-07
3.3289049e-07
3.31459011e-07
3.29830104e-07
3.2802163e-07
3.26054972e-07
3.23972958e-07
3.21731844e-07
3.19368364e-07
3.16871873e-07
3.14312687e-07
3.11577696e-07
3.08734788e-07
3.05851693e-07
3.02655585e-07
2.99618689e-07
2.96081328e-07
2.92334575e-07
2.89010835e-07
1.00745295e-06
9.96229067e-07
9.95116373e-07
9.95416936e-07
9.98710909e-07
1.00334124e-06
1.00749098e-06
1.01194444e-06
1.01615934e-06
1.02036942e-06
1.02433879e-06
1.0281884e-06
1.0319086e-06
1.03542547e-06
1.0388396e-06
1.04204955e-06
1.04532488e-06
1.04838833e-06
1.05149963e-06
1.05459309e-06
1.05784696e-06
1.06122446e-06
1.06474097e-06
1.06838598e-06
1.07223867e-06
1.07625583e-06
1.08044486e-06
1.08481493e-06
1.08935822e-06
1.09412772e-06
1.09916007e-06
1.10442995e-06
1.10992535e-06
1.1156603e-06
1.12169678e-06
1.12795735e-06
1.13437044e-06
1.14112163e-06
1.14807669e-06
1.15512408e-06
1.16223418e-06
1.16952621e-06
1.17700618e-06
1.18465372e-06
1.19246645e-06
1.20030119e-06
1.20799976e-06
1.21542897e-06
1.2226819e-06
1.22994846e-06
1.23720602e-06
1.24442242e-06
1.25159619e-06
1.25866273e-06
1.26558227e-06
1.27232223e-06
1.27883066e-06
1.28507701e-06
1.29101245e-06
1.29660068e-06
1.30185784e-06
1.30668187e-06
1.31101806e-06
1.31480612e-06
1.3179428e-06
1.32044296e-06
1.32227489e-06
1.32340589e-06
1.3237655e-06
1.32336479e-06
1.32219439e-06
1.32022055e-06
1.31743385e-06
1.3137974e-06
1.30933553e-06
1.30404562e-06
1.29778555e-06
1.29053655e-06
1.28258252e-06
1.27364778e-06
1.26400284e-06
1.25333584e-06
1.24195684e-06
1.2297752e-06
1.21688532e-06
1.20335928e-06
1.18925346e-06
1.17463237e-06
1.15965438e-06
1.14433694e-06
1.12890261e-06
1.11310439e-06
1.09720534e-06
1.08151035e-06
1.06548626e-06
1.05047429e-06
1.03501422e-06
1.02029312e-06
1.00824992e-06
2.19782562e-06
2.17943552e-06
2.17932985e-06
2.18375597e-06
2.19520317e-06
2.21035373e-06
2.22537145e-06
2.24167819e-06
2.25773786e-06
2.27307297e-06
2.2882131e-06
2.30324768e-06
2.31839222e-06
2.33327056e-06
2.34797923e-06
2.36237727e-06
2.37680797e-06
2.39081408e-06
2.40477523e-06
2.41859886e-06
2.43252531e-06
2.44650509e-06
2.46053803e-06
2.47459212e-06
2.48875804e-06
2.50299327e-06
2.51730889e-06
2.53170605e-06
2.54618481e-06
2.56080962e-06
2.57565621e-06
2.59067173e-06
2.60580737e-06
2.62107895e-06
2.6366786e-06
2.65240355e-06
2.668073e-06
2.6835062e-06
2.69894608e-06
2.71442103e-06
2.72987533e-06
2.74539199e-06
2.76096477e-06
2.7765451e-06
2.79211804e-06
2.80746411e-06
2.82228891e-06
2.83623053e-06
2.84944312e-06
2.86238666e-06
2.87502467e-06
2.88729467e-06
2.89918934e-06
2.91060437e-06
2.92146925e-06
2.93172703e-06
2.94128629e-06
2.95009261e-06
2.95805555e-06
2.965101e-06
2.97124352e-06
2.9763363e-06
2.98028812e-06
2.98303101e-06
2.98440494e-06
2.98440471e-06
2.98298345e-06
2.98009447e-06
2.97563012e-06
2.96959552e-06
2.9619832e-06
2.95274353e-06
2.94186394e-06
2.92925931e-06
2.91500501e-06
2.89916778e-06
2.8813788e-06
2.86147773e-06
2.83941393e-06
2.81539488e-06
2.7898616e-06
2.76246599e-06
2.73363062e-06
2.70329553e-06
2.67164415e-06
2.63883625e-06
2.60504125e-06
2.57034177e-06
2.53503972e-06
2.49922204e-06
2.46326099e-06
2.42687628e-06
2.39057546e-06
2.35499515e-06
2.31961837e-06
2.28661252e-06
2.25418561e-06
2.22465321e-06
2.20180653e-06
3.45445132e-06
3.4334195e-06
3.43400423e-06
3.44178139e-06
3.45930061e-06
3.48239468e-06
3.50608522e-06
3.53196365e-06
3.55807343e-06
3.583992e-06
3.60984653e-06
3.63554333e-06
3.66050224e-06
3.68531029e-06
3.70996781e-06
3.73441194e-06
3.75889514e-06
3.78288917e-06
3.80674548e-06
3.83040092e-06
3.85406404e-06
3.87768448e-06
3.90123549e-06
3.92467113e-06
3.94804613e-06
3.97132313e-06
3.99449937e-06
4.01755706e-06
4.04049225e-06
4.06334291e-06
4.08623864e-06
4.10910189e-06
4.13179838e-06
4.15424142e-06
4.17622901e-06
4.19793431e-06
4.21931811e-06
4.24036375e-06
4.26118064e-06
4.28178329e-06
4.30210566e-06
4.32218306e-06
4.34198671e-06
4.36145538e-06
4.38055738e-06
4.39908434e-06
4.41671948e-06
4.43285604e-06
4.44762687e-06
4.46174094e-06
4.47516212e-06
4.48782566e-06
4.49972006e-06
4.51074515e-06
4.52083078e-06
4.52992176e-06
4.53792795e-06
4.54479652e-06
4.55043653e-06
4.55477782e-06
4.5578326e-06
4.55947884e-06
4.55963233e-06
4.55824322e-06
4.55517465e-06
4.55041562e-06
4.5439299e-06
4.53568045e-06
4.5255768e-06
4.51362578e-06
4.49983411e-06
4.48417146e-06
4.46664826e-06
4.44706438e-06
4.42493153e-06
4.40026167e-06
4.37333684e-06
4.34407406e-06
4.31257216e-06
4.27887988e-06
4.24335061e-06
4.20569947e-06
4.16631398e-06
4.12517126e-06
4.0824733e-06
4.03840201e-06
3.99315109e-06
3.94682066e-06
3.89975006e-06
3.85206765e-06
3.8041549e-06
3.75580399e-06
3.70761062e-06
3.66034616e-06
3.61375175e-06
3.57012984e-06
3.5280579e-06
3.49033134e-06
3.46206645e-06
4.47493234e-06
4.45532314e-06
4.45660053e-06
4.46635268e-06
4.48660723e-06
4.51312599e-06
4.54104932e-06
4.57168172e-06
4.60306843e-06
4.63475253e-06
4.66665747e-06
4.69866311e-06
4.73040001e-06
4.76206867e-06
4.79358053e-06
4.82457138e-06
4.85516848e-06
4.88533461e-06
4.91528657e-06
4.94503397e-06
4.97472576e-06
5.00430873e-06
5.03373097e-06
5.06294572e-06
5.09195297e-06
5.12071301e-06
5.14919588e-06
5.17736245e-06
5.20518037e-06
5.23260071e-06
5.25951622e-06
5.28592079e-06
5.31184578e-06
5.33722453e-06
5.36200074e-06
5.38622987e-06
5.40985538e-06
5.43289295e-06
5.45538353e-06
5.47732221e-06
5.49864414e-06
5.51934755e-06
5.53938487e-06
5.55869115e-06
5.57721619e-06
5.59479925e-06
5.6112545e-06
5.62647557e-06
5.64054792e-06
5.65364404e-06
5.66572341e-06
5.67673149e-06
5.68665671e-06
5.69541929e-06
5.70296346e-06
5.70924838e-06
5.71420283e-06
5.71779009e-06
5.71993962e-06
5.72060116e-06
5.71978923e-06
5.71742557e-06
5.71344924e-06
5.70783561e-06
5.70049486e-06
5.69142274e-06
5.68060227e-06
5.66801421e-06
5.65360115e-06
5.63737324e-06
5.61935056e-06
5.5995244e-06
5.57729176e-06
5.55254738e-06
5.52550668e-06
5.4962377e-06
5.46485636e-06
5.43132754e-06
5.39576102e-06
5.35815618e-06
5.31878475e-06
5.27743375e-06
5.23441699e-06
5.18973478e-06
5.14356511e-06
5.09606988e-06
5.04741957e-06
4.99772179e-06
4.94728893e-06
4.89625052e-06
4.84494493e-06
4.79323491e-06
4.74168319e-06
4.6910721e-06
4.64134537e-06
4.59469717e-06
4.55036049e-06
4.5120687e-06
4.48430546e-06
5.23922096e-06
5.22192705e-06
5.22348191e-06
5.23397141e-06
5.25468528e-06
5.2818992e-06
5.31117772e-06
5.34352795e-06
5.37713396e-06
5.411478e-06
5.44639052e-06
5.48170712e-06
5.51712256e-06
5.55267975e-06
5.58824553e-06
5.62343898e-06
5.65836635e-06
5.69275008e-06
5.72681812e-06
5.76052417e-06
5.79410425e-06
5.82748556e-06
5.86059462e-06
5.89335194e-06
5.92574493e-06
5.9577111e-06
5.98920514e-06
6.02016565e-06
6.05054154e-06
6.08026949e-06
6.10929215e-06
6.13758264e-06
6.16512745e-06
6.1918717e-06
6.21778618e-06
6.2428754e-06
6.26708256e-06
6.29041403e-06
6.31287544e-06
6.33444599e-06
6.35506325e-06
6.3747037e-06
6.39331134e-06
6.41082187e-06
6.42717772e-06
6.44226021e-06
6.45594879e-06
6.46821805e-06
6.47914453e-06
6.48882537e-06
6.49722514e-06
6.50431088e-06
6.51008073e-06
6.51448574e-06
6.51749587e-06
6.5190949e-06
6.51924369e-06
6.51793251e-06
6.51512451e-06
6.51079588e-06
6.50497655e-06
6.49763466e-06
6.48874297e-06
6.47830521e-06
6.46628169e-06
6.45268478e-06
6.43751865e-06
6.42078229e-06
6.40244489e-06
6.38250844e-06
6.36097378e-06
6.33719644e-06
6.31139921e-06
6.28367768e-06
6.25415248e-06
6.22289148e-06
6.18995671e-06
6.15534102e-06
6.11913436e-06
6.08132934e-06
6.04212305e-06
6.00137594e-06
5.95932179e-06
5.91597637e-06
5.87147663e-06
5.82594704e-06
5.77950902e-06
5.73226331e-06
5.6844585e-06
5.6361964e-06
5.58773322e-06
5.53897154e-06
5.49036577e-06
5.44259761e-06
5.39572675e-06
5.35164903e-06
5.31007623e-06
5.27453826e-06
5.24890526e-06
5.78905514e-06
5.7755785e-06
5.7785245e-06
5.79041241e-06
5.81175789e-06
5.83947223e-06
5.86974461e-06
5.90328416e-06
5.9384649e-06
5.97471869e-06
6.01182332e-06
6.04954769e-06
6.08760095e-06
6.12594828e-06
6.16443884e-06
6.20268723e-06
6.2407093e-06
6.27810549e-06
6.31504776e-06
6.35140909e-06
6.38751055e-06
6.42327458e-06
6.45860592e-06
6.49340619e-06
6.5276373e-06
6.56121935e-06
6.59408933e-06
6.62617067e-06
6.6574034e-06
6.68771823e-06
6.71706587e-06
6.74540243e-06
6.77269508e-06
6.79889397e-06
6.82397158e-06
6.8479089e-06
6.87065438e-06
6.89220193e-06
6.91253833e-06
6.93163487e-06
6.94943561e-06
6.96590862e-06
6.98100152e-06
6.99465937e-06
7.00683313e-06
7.01745158e-06
7.02646032e-06
7.03388856e-06
7.03980466e-06
7.04427079e-06
7.04727287e-06
7.04880532e-06
7.0488847e-06
7.04749737e-06
7.04464435e-06
7.04033884e-06
7.03457896e-06
7.02738702e-06
7.0187684e-06
7.00874171e-06
6.99734656e-06
6.98459206e-06
6.97048601e-06
6.95505795e-06
6.93830922e-06
6.92026886e-06
6.90095743e-06
6.8803842e-06
6.85852798e-06
6.83536241e-06
6.81049126e-06
6.78403883e-06
6.75620915e-06
6.72709105e-06
6.69677362e-06
6.66532103e-06
6.63277915e-06
6.59915453e-06
6.56451098e-06
6.52884303e-06
6.49228208e-06
6.45474796e-06
6.41640432e-06
6.37727734e-06
6.33745951e-06
6.29703291e-06
6.25605607e-06
6.21461935e-06
6.17289372e-06
6.13093731e-06
6.08891134e-06
6.04672708e-06
6.00470344e-06
5.96337259e-06
5.92284354e-06
5.8846751e-06
5.84892251e-06
5.81867108e-06
5.79716995e-06
6.17976072e-06
6.17133454e-06
6.17699423e-06
6.19134227e-06
6.21422774e-06
6.24315542e-06
6.27489244e-06
6.30989878e-06
6.34673722e-06
6.38480044e-06
6.42383748e-06
6.46355678e-06
6.50366525e-06
6.54407491e-06
6.58463692e-06
6.62496509e-06
6.66502331e-06
6.70434101e-06
6.74305474e-06
6.78090967e-06
6.81828332e-06
6.85510694e-06
6.89126822e-06
6.92665725e-06
6.96121298e-06
6.99484369e-06
7.02747363e-06
7.05901853e-06
7.08941429e-06
7.11858996e-06
7.1464958e-06
7.17308107e-06
7.19830747e-06
7.2221304e-06
7.24452227e-06
7.26545638e-06
7.28488979e-06
7.30281013e-06
7.31919849e-06
7.33402815e-06
7.347256e-06
7.35885616e-06
7.36879299e-06
7.37703432e-06
7.38355858e-06
7.38834665e-06
7.39140133e-06
7.39278279e-06
7.39255269e-06
7.39076345e-06
7.38743162e-06
7.38258195e-06
7.37625503e-06
7.36847341e-06
7.35926995e-06
7.3486872e-06
7.33675922e-06
7.32353833e-06
7.30906693e-06
7.293396e-06
7.27658583e-06
7.25867831e-06
7.23970995e-06
7.21972904e-06
7.1987639e-06
7.17685404e-06
7.15402857e-06
7.13029951e-06
7.10564516e-06
7.07988384e-06
7.05303773e-06
7.02532222e-06
6.99687662e-06
6.9677835e-06
6.9381219e-06
6.90795675e-06
6.87733046e-06
6.84625272e-06
6.81476054e-06
6.78284589e-06
6.75057966e-06
6.71791556e-06
6.68495708e-06
6.65173794e-06
6.61831084e-06
6.58472132e-06
6.55100676e-06
6.51719032e-06
6.48335866e-06
6.44952314e-06
6.41575704e-06
6.38196317e-06
6.34833528e-06
6.31525738e-06
6.28284724e-06
6.25235353e-06
6.22404402e-06
6.20052716e-06
6.18456136e-06
6.45931961e-06
6.45669253e-06
6.46604186e-06
6.48362579e-06
6.50875612e-06
6.53946873e-06
6.57301025e-06
6.60963543e-06
6.64807932e-06
6.68770547e-06
6.72825395e-06
6.76944252e-06
6.81096289e-06
6.85259871e-06
6.89421269e-06
6.93541019e-06
6.9762359e-06
7.01621397e-06
7.05543474e-06
7.09348501e-06
7.13076625e-06
7.16722208e-06
7.20273037e-06
7.23717647e-06
7.27048442e-06
7.30255776e-06
7.33331577e-06
7.36267475e-06
7.39057152e-06
7.41693926e-06
7.44173051e-06
7.46489697e-06
7.48640373e-06
7.50621487e-06
7.52430736e-06
7.54065837e-06
7.55523802e-06
7.56803663e-06
7.57904162e-06
7.58823806e-06
7.59560344e-06
7.60113039e-06
7.60481171e-06
7.60664852e-06
7.60665688e-06
7.60486453e-06
7.60131519e-06
7.59608406e-06
7.58923637e-06
7.58083434e-06
7.5709268e-06
7.55956946e-06
7.54682967e-06
7.53276494e-06
7.51743824e-06
7.50091832e-06
7.48326937e-06
7.46456775e-06
7.44488531e-06
7.42429848e-06
7.4028876e-06
7.38072029e-06
7.35785464e-06
7.33434937e-06
7.3102458e-06
7.28558545e-06
7.26039788e-06
7.23469298e-06
7.20844767e-06
7.18164217e-06
7.1544809e-06
7.12711215e-06
7.09963199e-06
7.07210743e-06
7.0446045e-06
7.01718769e-06
6.98990364e-06
6.96275751e-06
6.93576063e-06
6.90889632e-06
6.88218001e-06
6.85557067e-06
6.82911157e-06
6.8028392e-06
6.77677455e-06
6.75092622e-06
6.72529336e-06
6.69986074e-06
6.67464664e-06
6.64962016e-06
6.62478312e-06
6.60002492e-06
6.57544144e-06
6.55129573e-06
6.52769021e-06
6.50560206e-06
6.48539068e-06
6.46922853e-06
6.45955197e-06
6.66272721e-06
6.66604228e-06
6.67938925e-06
6.70037118e-06
6.72792081e-06
6.76078132e-06
6.79627571e-06
6.83443725e-06
6.87416307e-06
6.91482836e-06
6.95616841e-06
6.99788956e-06
7.0397268e-06
7.08141689e-06
7.12286708e-06
7.16363218e-06
7.20380179e-06
7.24288425e-06
7.28089832e-06
7.31766822e-06
7.35338633e-06
7.38796612e-06
7.42128481e-06
7.45323045e-06
7.48372157e-06
7.51266506e-06
7.53998415e-06
7.56560373e-06
7.58946768e-06
7.61151945e-06
7.63171929e-06
7.65002881e-06
7.66642305e-06
7.68087942e-06
7.69338609e-06
7.70393361e-06
7.71251118e-06
7.71912187e-06
7.72377005e-06
7.72646133e-06
7.72720061e-06
7.72600739e-06
7.7229089e-06
7.71794299e-06
7.71116346e-06
7.7026357e-06
7.69243314e-06
7.68064366e-06
7.66734642e-06
7.65262127e-06
7.63654559e-06
7.61920277e-06
7.60068536e-06
7.5810827e-06
7.56048516e-06
7.53898356e-06
7.51666392e-06
7.49361716e-06
7.46993277e-06
7.44570159e-06
7.42101766e-06
7.39596768e-06
7.37062705e-06
7.34506042e-06
7.31931226e-06
7.29342096e-06
7.2674133e-06
7.24130073e-06
7.2151413e-06
7.18910263e-06
7.16335106e-06
7.13798482e-06
7.11306397e-06
7.0886294e-06
7.06471896e-06
7.0413822e-06
7.0186751e-06
6.99659508e-06
6.97513103e-06
6.95425627e-06
6.93394397e-06
6.91414312e-06
6.89483359e-06
6.87604141e-06
6.8577643e-06
6.83998087e-06
6.8226574e-06
6.8057464e-06
6.78921563e-06
6.77300285e-06
6.75706e-06
6.74126631e-06
6.72564934e-06
6.71038505e-06
6.6955523e-06
6.68190367e-06
6.66980876e-06
6.66105071e-06
6.65782773e-06
6.81272913e-06
6.82174877e-06
6.83926849e-06
6.86357134e-06
6.89332901e-06
6.92763837e-06
6.96425815e-06
7.00306415e-06
7.04310018e-06
7.08376839e-06
7.12481919e-06
7.16595057e-06
7.20695686e-06
7.24749876e-06
7.28756373e-06
7.32667049e-06
7.36486826e-06
7.40157295e-06
7.4370011e-06
7.47102634e-06
7.50368909e-06
7.53489353e-06
7.56452611e-06
7.59248496e-06
7.61869305e-06
7.64307083e-06
7.66555246e-06
7.68607939e-06
7.70460915e-06
7.72110189e-06
7.7355317e-06
7.74787626e-06
7.75812596e-06
7.76627629e-06
7.77233286e-06
7.77630687e-06
7.77821268e-06
7.77807532e-06
7.7759246e-06
7.77179299e-06
7.76571611e-06
7.75774258e-06
7.74793282e-06
7.73635728e-06
7.72310145e-06
7.7082604e-06
7.69193337e-06
7.67422493e-06
7.65523334e-06
7.63505539e-06
7.61378951e-06
7.59153873e-06
7.56841348e-06
7.54452745e-06
7.5199944e-06
7.49492482e-06
7.46941987e-06
7.4435749e-06
7.41748465e-06
7.39124089e-06
7.36493877e-06
7.3386727e-06
7.31253221e-06
7.28659062e-06
7.26089047e-06
7.23546636e-06
7.21034118e-06
7.18557057e-06
7.16131694e-06
7.13774119e-06
7.1149766e-06
7.09308335e-06
7.07209315e-06
7.05202144e-06
7.03287092e-06
7.01465477e-06
6.99742651e-06
6.98117655e-06
6.96587528e-06
6.95148747e-06
6.93796114e-06
6.92523868e-06
6.91324851e-06
6.90199256e-06
6.89144894e-06
6.8815746e-06
6.87231076e-06
6.86358668e-06
6.85533619e-06
6.84747724e-06
6.83993107e-06
6.83257205e-06
6.82537934e-06
6.81846371e-06
6.81187007e-06
6.80617124e-06
6.80171054e-06
6.79991872e-06
6.80277847e-06
6.92375787e-06
6.93774307e-06
6.95853501e-06
6.98520275e-06
7.01629078e-06
7.05118984e-06
7.08797928e-06
7.12643234e-06
7.16573027e-06
7.20531254e-06
7.24496407e-06
7.28435684e-06
7.32336991e-06
7.36160703e-06
7.3990388e-06
7.43504771e-06
7.46976681e-06
7.50290606e-06
7.53443464e-06
7.56428628e-06
7.5924833e-06
7.61893064e-06
7.64353222e-06
7.66620345e-06
7.68688003e-06
7.70550265e-06
7.72202407e-06
7.73640927e-06
7.74863623e-06
7.75868862e-06
7.76656062e-06
7.77225113e-06
7.77577018e-06
7.77713502e-06
7.77637256e-06
7.77351841e-06
7.76861507e-06
7.76171515e-06
7.75287941e-06
7.74217117e-06
7.72965707e-06
7.71541219e-06
7.69952391e-06
7.68208661e-06
7.66320793e-06
7.64300405e-06
7.62159692e-06
7.59911127e-06
7.57566684e-06
7.5513738e-06
7.52634278e-06
7.50068587e-06
7.47451902e-06
7.44796568e-06
7.42115256e-06
7.39420668e-06
7.36724256e-06
7.34035213e-06
7.31362672e-06
7.28714902e-06
7.26100162e-06
7.23526857e-06
7.21004115e-06
7.18540514e-06
7.16139996e-06
7.13805901e-06
7.11540669e-06
7.09362664e-06
7.07280021e-06
7.05305207e-06
7.0344828e-06
7.01712643e-06
7.00099306e-06
6.98608099e-06
6.97236867e-06
6.95983268e-06
6.94850223e-06
6.93836203e-06
6.92936869e-06
6.92147955e-06
6.91462746e-06
6.90874727e-06
6.90369601e-06
6.89949466e-06
6.89613955e-06
6.89357304e-06
6.89171905e-06
6.89049078e-06
6.88979935e-06
6.88955023e-06
6.88964597e-06
6.88995538e-06
6.89041532e-06
6.8910822e-06
6.89198325e-06
6.89355879e-06
6.89611312e-06
6.90081081e-06
6.90937051e-06
7.00334483e-06
7.02125369e-06
7.04439829e-06
7.0724497e-06
7.1039397e-06
7.13846711e-06
7.17439975e-06
7.21144843e-06
7.24893178e-06
7.28632409e-06
7.32346961e-06
7.36001549e-06
7.39582952e-06
7.43034733e-06
7.4636318e-06
7.49534697e-06
7.52539036e-06
7.55355388e-06
7.5798536e-06
7.60426021e-06
7.62676716e-06
7.64729675e-06
7.66577633e-06
7.68214499e-06
7.69635739e-06
7.7083786e-06
7.71818555e-06
7.72577103e-06
7.73113879e-06
7.73430248e-06
7.73528295e-06
7.73410492e-06
7.73080098e-06
7.72541225e-06
7.71798808e-06
7.70858794e-06
7.69728018e-06
7.684144e-06
7.66927107e-06
7.65275714e-06
7.63469959e-06
7.61519563e-06
7.59435194e-06
7.57227772e-06
7.54909193e-06
7.52491984e-06
7.49989573e-06
7.47416052e-06
7.44785574e-06
7.42110215e-06
7.39401451e-06
7.36670531e-06
7.33928479e-06
7.31186888e-06
7.28457732e-06
7.25754008e-06
7.23088244e-06
7.20468784e-06
7.17903949e-06
7.15400855e-06
7.12966117e-06
7.10605966e-06
7.08327633e-06
7.06139328e-06
7.04044715e-06
7.02046854e-06
7.00155192e-06
6.9838672e-06
6.96743995e-06
6.95234034e-06
6.93862649e-06
6.92631449e-06
6.91539619e-06
6.90585421e-06
6.89763878e-06
6.8906255e-06
6.88493346e-06
6.88055898e-06
6.87745034e-06
6.8755589e-06
6.87481174e-06
6.87515174e-06
6.87648066e-06
6.87878662e-06
6.88201865e-06
6.88610615e-06
6.89096196e-06
6.89648966e-06
6.90258509e-06
6.90914564e-06
6.91606017e-06
6.92319653e-06
6.93045895e-06
6.93784419e-06
6.94534269e-06
6.95325481e-06
6.96185442e-06
6.97207502e-06
6.98539504e-06
7.05604302e-06
7.0768779e-06
7.10142963e-06
7.12986348e-06
7.16078575e-06
7.19393859e-06
7.2279719e-06
7.2625591e-06
7.29717073e-06
7.33130736e-06
7.36476952e-06
7.39707671e-06
7.42820063e-06
7.45781057e-06
7.48576374e-06
7.51180683e-06
7.53588955e-06
7.55791089e-06
7.5779004e-06
7.59584469e-06
7.61172279e-06
7.62548865e-06
7.63709884e-06
7.64652135e-06
7.65373495e-06
7.65873235e-06
7.66151621e-06
7.66210737e-06
7.66053624e-06
7.65684954e-06
7.65110069e-06
7.64334524e-06
7.63363942e-06
7.62204884e-06
7.60864442e-06
7.59350628e-06
7.57672202e-06
7.55838893e-06
7.53862e-06
7.51753784e-06
7.49526962e-06
7.47193002e-06
7.44763777e-06
7.42250982e-06
7.3966681e-06
7.37023532e-06
7.34334148e-06
7.31612633e-06
7.2887436e-06
7.26131965e-06
7.233966e-06
7.20678958e-06
7.17989039e-06
7.15336911e-06
7.1273238e-06
7.10186328e-06
7.07710089e-06
7.0531087e-06
7.02995633e-06
7.00770226e-06
6.98639851e-06
6.96609001e-06
6.94682965e-06
6.92866615e-06
6.91163283e-06
6.89574445e-06
6.88122254e-06
6.86806158e-06
6.85623992e-06
6.84576858e-06
6.83678914e-06
6.82930641e-06
6.82329976e-06
6.81874376e-06
6.81559237e-06
6.81379009e-06
6.81338314e-06
6.81434807e-06
6.81662914e-06
6.82017516e-06
6.82491059e-06
6.8307839e-06
6.83770972e-06
6.84567559e-06
6.8546195e-06
6.86446367e-06
6.87511566e-06
6.8864744e-06
6.89842659e-06
6.91086566e-06
6.9236717e-06
6.93671218e-06
6.94986357e-06
6.96306671e-06
6.9762686e-06
6.98963237e-06
7.00338028e-06
7.01823244e-06
7.03541945e-06
7.08475644e-06
7.10753842e-06
7.13255117e-06
7.16037137e-06
7.18975436e-06
7.22053619e-06
7.25166104e-06
7.28276586e-06
7.31335299e-06
7.3428748e-06
7.37124268e-06
7.39813146e-06
7.42337737e-06
7.44673502e-06
7.46813045e-06
7.48742717e-06
7.50461585e-06
7.51967397e-06
7.53261293e-06
7.54343552e-06
7.55212936e-06
7.55868941e-06
7.56310919e-06
7.56538912e-06
7.56553626e-06
7.56357315e-06
7.55952826e-06
7.55344764e-06
7.54538356e-06
7.53541044e-06
7.52361391e-06
7.51008478e-06
7.49490119e-06
7.47815108e-06
7.45992447e-06
7.44031822e-06
7.41943268e-06
7.39737305e-06
7.37425732e-06
7.35021668e-06
7.32539777e-06
7.29992528e-06
7.27392134e-06
7.24750386e-06
7.22079242e-06
7.19390226e-06
7.16695015e-06
7.14005718e-06
7.11335992e-06
7.08697254e-06
7.06099507e-06
7.03552091e-06
7.01063554e-06
6.98642292e-06
6.96296214e-06
6.9403371e-06
6.91861572e-06
6.89785642e-06
6.87810968e-06
6.85941528e-06
6.841801e-06
6.82526332e-06
6.80976472e-06
6.79547776e-06
6.78243613e-06
6.77067998e-06
6.76039338e-06
6.75153189e-06
6.74409268e-06
6.73809925e-06
6.73362564e-06
6.73066319e-06
6.72918466e-06
6.72916053e-06
6.73054985e-06
6.73332428e-06
6.7375138e-06
6.74308756e-06
6.74999176e-06
6.75817885e-06
6.76757993e-06
6.77815728e-06
6.78983988e-06
6.80260549e-06
6.81638253e-06
6.83109141e-06
6.84663822e-06
6.86292061e-06
6.87982036e-06
6.89722978e-06
6.91502451e-06
6.93307426e-06
6.95123424e-06
6.96939463e-06
6.98745511e-06
7.00544286e-06
7.02350706e-06
7.04215019e-06
7.06233818e-06
7.09138673e-06
7.11516394e-06
7.13971644e-06
7.16595866e-06
7.19287631e-06
7.22033319e-06
7.24743397e-06
7.27374828e-06
7.2989891e-06
7.32275053e-06
7.34485993e-06
7.36508031e-06
7.38332509e-06
7.39947188e-06
7.41351666e-06
7.42542813e-06
7.43521144e-06
7.44289447e-06
7.44847585e-06
7.45198044e-06
7.4534154e-06
7.45281801e-06
7.45022693e-06
7.44567588e-06
7.43920219e-06
7.43085896e-06
7.42070049e-06
7.40879559e-06
7.39521253e-06
7.3800411e-06
7.36338522e-06
7.34536562e-06
7.32607661e-06
7.30562112e-06
7.28410188e-06
7.2616263e-06
7.23830205e-06
7.21423704e-06
7.18954519e-06
7.1643482e-06
7.13877991e-06
7.1129574e-06
7.08699474e-06
7.06099999e-06
7.03508149e-06
7.00934116e-06
6.98388019e-06
6.9588062e-06
6.93421544e-06
6.91018616e-06
6.88679923e-06
6.86412531e-06
6.84222457e-06
6.82114644e-06
6.80090058e-06
6.78149448e-06
6.7631132e-06
6.74580304e-06
6.72959676e-06
6.71451794e-06
6.7005808e-06
6.68778361e-06
6.67612968e-06
6.66572887e-06
6.65658659e-06
6.64887137e-06
6.6425789e-06
6.6377028e-06
6.63424681e-06
6.63224106e-06
6.63173088e-06
6.63270081e-06
6.63512557e-06
6.63898187e-06
6.64424348e-06
6.65089862e-06
6.65895323e-06
6.66837591e-06
6.67911942e-06
6.69114429e-06
6.70439308e-06
6.71884152e-06
6.73442738e-06
6.75112129e-06
6.76884953e-06
6.78753412e-06
6.80708248e-06
6.82739318e-06
6.84834619e-06
6.86983487e-06
6.89173428e-06
6.91391879e-06
6.93622871e-06
6.95851055e-06
6.98061696e-06
7.00244378e-06
7.02404181e-06
7.04567805e-06
7.06803522e-06
7.07730545e-06
7.10117578e-06
7.12440486e-06
7.14814859e-06
7.17154872e-06
7.19447224e-06
7.21634078e-06
7.23678718e-06
7.25558309e-06
7.27246527e-06
7.28734858e-06
7.30011974e-06
7.31077106e-06
7.31928311e-06
7.32569774e-06
7.33006411e-06
7.33240286e-06
7.33278504e-06
7.3312166e-06
7.32774901e-06
7.32240834e-06
7.3152621e-06
7.30639158e-06
7.29586103e-06
7.28373451e-06
7.27009194e-06
7.25501039e-06
7.23857884e-06
7.22087973e-06
7.20201198e-06
7.18208205e-06
7.16120648e-06
7.13948544e-06
7.11702371e-06
7.09392433e-06
7.07029298e-06
7.04623336e-06
7.02184754e-06
6.99724088e-06
6.97253126e-06
6.94780969e-06
6.92316395e-06
6.89868905e-06
6.87447142e-06
6.85059494e-06
6.82713148e-06
6.80413618e-06
6.78160975e-06
6.75967168e-06
6.73846146e-06
6.71804107e-06
6.69845893e-06
6.67975344e-06
6.66195382e-06
6.64506911e-06
6.62912999e-06
6.61426799e-06
6.60051092e-06
6.58787735e-06
6.57637799e-06
6.56601921e-06
6.55680516e-06
6.54876248e-06
6.54196586e-06
6.53642412e-06
6.53230696e-06
6.5295569e-06
6.52818282e-06
6.52819623e-06
6.52962241e-06
6.53248052e-06
6.53675666e-06
6.54243241e-06
6.54949419e-06
6.55792767e-06
6.56772588e-06
6.57888176e-06
6.59136955e-06
6.60515144e-06
6.6201983e-06
6.6364656e-06
6.65394016e-06
6.67256698e-06
6.69231529e-06
6.71311525e-06
6.73489291e-06
6.75755907e-06
6.78101473e-06
6.80514037e-06
6.82983191e-06
6.85496655e-06
6.8804244e-06
6.90603585e-06
6.9316111e-06
6.95696013e-06
6.98185865e-06
7.00623823e-06
7.03010835e-06
7.05384918e-06
7.04370114e-06
7.06672577e-06
7.08765365e-06
7.10779329e-06
7.1266299e-06
7.14406338e-06
7.15972827e-06
7.17337605e-06
7.18495494e-06
7.19437628e-06
7.20165954e-06
7.20680489e-06
7.20986519e-06
7.21088855e-06
7.20994666e-06
7.20714806e-06
7.20254025e-06
7.19623724e-06
7.18826819e-06
7.17871547e-06
7.16762675e-06
7.15508717e-06
7.14118562e-06
7.12600963e-06
7.1096391e-06
7.09216936e-06
7.07368905e-06
7.05429627e-06
7.03407956e-06
7.01314259e-06
6.9916037e-06
6.9695327e-06
6.94702221e-06
6.92416534e-06
6.90105141e-06
6.87776928e-06
6.85440193e-06
6.83102405e-06
6.80769491e-06
6.78442053e-06
6.76134574e-06
6.73859574e-06
6.71624482e-06
6.69435612e-06
6.67298898e-06
6.6521895e-06
6.63199029e-06
6.61240417e-06
6.59353693e-06
6.57549182e-06
6.55830937e-06
6.54201872e-06
6.52664088e-06
6.51219335e-06
6.4986916e-06
6.48618028e-06
6.47474375e-06
6.46439436e-06
6.45514239e-06
6.44699311e-06
6.43995384e-06
6.43403717e-06
6.42927218e-06
6.42569735e-06
6.42337067e-06
6.42237755e-06
6.42267585e-06
6.42427803e-06
6.42719686e-06
6.43144907e-06
6.43704114e-06