/*--------------------------------*- C++ -*----------------------------------*\
| =========                 |                                                 |
| \\      /  F ield         | OpenFOAM: The Open Source CFD Toolbox           |
|  \\    /   O peration     | Version:  1.7.0                                 |
|   \\  /    A nd           | Web:      www.OpenFOAM.com                      |
|    \\/     M anipulation  |                                                 |
\*---------------------------------------------------------------------------*/
FoamFile
{
    version     2.0;
    format      ascii;
    class       volVectorField;
    object      U_HF;
}
// * * * * * * * * * * * * * * * * * * * * * * * * * * * * * * * * * * * * * //

dimensions      [0 1 -1 0 0 0 0];

internalField  nonuniform List<vector> 
15600
(
(0.009570733112 0.000007161555 0.0)
(0.006945590794 -0.000152253052 0.0)
(0.001330877663 -0.000144504276 0.0)
(-0.000352898471 0.000090702265 0.0)
(-0.000467745438 0.000227576346 0.0)
(-0.000843234312 0.000550906826 0.0)
(-0.000666018211 0.000501196095 0.0)
(-0.000610978676 0.000494057837 0.0)
(-0.000603757062 0.000512717893 0.0)
(-0.000789443401 0.000679029251 0.0)
(-0.001096334563 0.000936483633 0.0)
(-0.001656687604 0.001385483191 0.0)
(-0.002464686007 0.002013328306 0.0)
(-0.003193895993 0.002543436487 0.0)
(-0.003753026781 0.002917939250 0.0)
(-0.003824193096 0.002914843063 0.0)
(-0.003125546545 0.002332742076 0.0)
(-0.001971114002 0.001442421636 0.0)
(-0.001098609489 0.000785129292 0.0)
(-0.001488255323 0.001023619664 0.0)
(-0.003760349852 0.002441214090 0.0)
(-0.007471324661 0.004415603959 0.0)
(-0.010926227937 0.005556252835 0.0)
(-0.012415937567 0.005032848072 0.0)
(-0.012046270486 0.003607451325 0.0)
(-0.011140605172 0.002194481028 0.0)
(-0.009944298754 0.000996221224 0.0)
(-0.009184828903 0.000223036513 0.0)
(-0.010921426165 0.000107004731 0.0)
(-0.015215836020 0.000104941521 0.0)
(-0.019325926296 0.000100716151 0.0)
(-0.023193797690 0.000090913160 0.0)
(-0.026588555952 0.000080895062 0.0)
(-0.029528117578 0.000063815223 0.0)
(-0.031562998128 0.000043002341 0.0)
(-0.033107082087 0.000036260423 0.0)
(-0.034378384089 0.000028617436 0.0)
(-0.035285930665 0.000016692975 0.0)
(-0.035487408581 -0.000006972925 0.0)
(-0.034814903428 -0.000018043039 0.0)
(-0.034563825266 0.000007258402 0.0)
(-0.034967185016 0.000009146989 0.0)
(-0.034920685301 -0.000008944513 0.0)
(-0.034206067381 -0.000019271494 0.0)
(-0.033391979604 -0.000023542728 0.0)
(-0.032172542671 -0.000029249153 0.0)
(-0.031458720282 -0.000002801392 0.0)
(-0.031448567481 -0.000001039989 0.0)
(-0.030989015098 -0.000024463728 0.0)
(-0.029892603060 -0.000024319562 0.0)
(-0.029072733248 -0.000025261415 0.0)
(-0.027750123372 -0.000031893046 0.0)
(-0.026361331312 -0.000035436322 0.0)
(-0.025024350735 -0.000035227806 0.0)
(-0.023022879467 -0.000051225813 0.0)
(-0.021053897032 -0.000052582055 0.0)
(-0.019157302463 -0.000038124524 0.0)
(-0.017469167563 -0.000046568170 0.0)
(-0.015710653114 -0.000041498168 0.0)
(-0.013798508090 -0.000052321195 0.0)
(-0.011963527512 -0.000040602300 0.0)
(-0.009967380144 -0.000057085208 0.0)
(-0.008442191862 -0.000018151011 0.0)
(-0.007748279615 -0.000013261217 0.0)
(-0.007040020320 -0.000015314566 0.0)
(-0.006560495926 -0.000015164510 0.0)
(-0.006089675455 -0.000011873642 0.0)
(-0.005244893856 -0.000025446994 0.0)
(-0.003978120492 -0.000040262805 0.0)
(-0.002249831042 -0.000043148913 0.0)
(-0.000911558778 -0.000018655533 0.0)
(-0.000456286233 -0.000013270575 0.0)
(0.000431853332 -0.000024219889 0.0)
(0.001289673809 -0.000015200711 0.0)
(0.001963635628 -0.000017342044 0.0)
(0.002500156782 -0.000013165875 0.0)
(0.003308164233 -0.000022664930 0.0)
(0.004161029095 -0.000017867660 0.0)
(0.004706103714 -0.000008389104 0.0)
(0.005030378190 -0.000009490408 0.0)
(0.005436487256 -0.000011123527 0.0)
(0.005810053485 -0.000006652195 0.0)
(0.005988800070 0.000000713913 0.0)
(0.005847262974 0.000003929818 0.0)
(0.005727842434 0.000004382107 0.0)
(0.005345843177 0.000014868155 0.0)
(0.004624556589 0.000020457828 0.0)
(0.003858460060 0.000017598777 0.0)
(0.003075598718 0.000023178225 0.0)
(0.002072701828 0.000025834799 0.0)
(0.000878460582 0.000037688741 0.0)
(-0.000877416618 0.000047352298 0.0)
(-0.003378453411 0.000063687631 0.0)
(-0.006507563260 -0.000393573104 0.0)
(-0.007944755859 -0.001503968555 0.0)
(-0.005543761550 -0.002104780864 0.0)
(-0.000793342541 -0.000917054508 0.0)
(0.004299772771 0.001818144409 0.0)
(0.006083475514 0.003463279125 0.0)
(0.004537672994 0.002918963364 0.0)
(0.002413040476 0.001648522405 0.0)
(0.002457005504 0.001740927638 0.0)
(0.006279003394 0.004592981801 0.0)
(0.013667350020 0.010145325173 0.0)
(0.022479213056 0.016866444575 0.0)
(0.031057481535 0.023780094408 0.0)
(0.036945063265 0.028961297391 0.0)
(0.039345856282 0.031558971348 0.0)
(0.040283102759 0.033318922310 0.0)
(0.038619486568 0.032541484021 0.0)
(0.042713334444 0.036389250999 0.0)
(0.051339538770 0.043335227728 0.0)
(0.054499481177 0.044160039757 0.0)
(0.051880734007 0.038810458870 0.0)
(0.036259652677 0.023155989153 0.0)
(0.013262751640 0.006370626527 0.0)
(0.009876615968 0.002578022393 0.0)
(0.024296430288 0.002924246472 0.0)
(0.020452374850 0.000679735122 0.0)
(0.012575196533 0.000077945548 0.0)
(0.035753163693 0.000136894085 0.0)
(0.029140550853 -0.000484108240 0.0)
(0.011763958445 -0.000834494941 0.0)
(-0.005138057506 0.001705164100 0.0)
(-0.008370590167 0.003897911793 0.0)
(-0.005660835381 0.003434822115 0.0)
(-0.002956409981 0.002099946989 0.0)
(-0.002068554958 0.001651762607 0.0)
(-0.001977352284 0.001684995956 0.0)
(-0.002483953387 0.002165113188 0.0)
(-0.003333871059 0.002873639154 0.0)
(-0.004544487787 0.003849806153 0.0)
(-0.006132809400 0.005057747966 0.0)
(-0.007846979144 0.006327069555 0.0)
(-0.009583081106 0.007537542349 0.0)
(-0.010885093581 0.008382955887 0.0)
(-0.011670852734 0.008818936778 0.0)
(-0.012012310707 0.008878330701 0.0)
(-0.012482620108 0.008962544363 0.0)
(-0.013889516750 0.009570365923 0.0)
(-0.016379914707 0.010584536703 0.0)
(-0.019587781612 0.011457098552 0.0)
(-0.022237462633 0.011089754711 0.0)
(-0.022952015132 0.009114086330 0.0)
(-0.022172781011 0.006568703656 0.0)
(-0.021536423418 0.004365145253 0.0)
(-0.021891053391 0.002493398805 0.0)
(-0.025425288221 0.001218937758 0.0)
(-0.034497691914 0.000931166174 0.0)
(-0.046377664484 0.000905728784 0.0)
(-0.057627249265 0.000856490680 0.0)
(-0.067864382013 0.000755489971 0.0)
(-0.076674224475 0.000665962302 0.0)
(-0.084041324017 0.000506101895 0.0)
(-0.088968650291 0.000336982722 0.0)
(-0.092733431665 0.000279388606 0.0)
(-0.095639304572 0.000206677171 0.0)
(-0.097437814692 0.000099747401 0.0)
(-0.097405652446 -0.000090625742 0.0)
(-0.095526035608 -0.000155737024 0.0)
(-0.094729008740 0.000029491825 0.0)
(-0.095289133322 0.000036200797 0.0)
(-0.094641021499 -0.000107499979 0.0)
(-0.092388823151 -0.000195636532 0.0)
(-0.089841243851 -0.000232070631 0.0)
(-0.086682217982 -0.000245378277 0.0)
(-0.084649780428 -0.000062457415 0.0)
(-0.084163453281 -0.000041375726 0.0)
(-0.082489542558 -0.000234569415 0.0)
(-0.079444280637 -0.000223857757 0.0)
(-0.076750681405 -0.000254503579 0.0)
(-0.073020059664 -0.000294824190 0.0)
(-0.069094304099 -0.000325217640 0.0)
(-0.065003507933 -0.000353695788 0.0)
(-0.059435155320 -0.000448433004 0.0)
(-0.054122035056 -0.000454252650 0.0)
(-0.049088558091 -0.000355996376 0.0)
(-0.044277846715 -0.000414859394 0.0)
(-0.039463427549 -0.000373960072 0.0)
(-0.034321904097 -0.000453751552 0.0)
(-0.029134311476 -0.000377066900 0.0)
(-0.023841309001 -0.000466910416 0.0)
(-0.019954324794 -0.000184590830 0.0)
(-0.017794061044 -0.000143910001 0.0)
(-0.015952984005 -0.000133753024 0.0)
(-0.014450032723 -0.000146472693 0.0)
(-0.012861490484 -0.000130274319 0.0)
(-0.010449284865 -0.000238013199 0.0)
(-0.006879198561 -0.000350248185 0.0)
(-0.002268340331 -0.000368025571 0.0)
(0.001242381238 -0.000185014729 0.0)
(0.003028080428 -0.000146093221 0.0)
(0.005508731818 -0.000218677925 0.0)
(0.007913309262 -0.000150363971 0.0)
(0.009838243018 -0.000158573017 0.0)
(0.011416685743 -0.000133295669 0.0)
(0.013520259674 -0.000193344792 0.0)
(0.015725888073 -0.000158134577 0.0)
(0.017096983025 -0.000074966833 0.0)
(0.018055087440 -0.000094877500 0.0)
(0.019253048988 -0.000103544528 0.0)
(0.020288411749 -0.000070970110 0.0)
(0.020755029748 -0.000002820673 0.0)
(0.020493294779 0.000019517489 0.0)
(0.020285351493 0.000024575287 0.0)
(0.019236565227 0.000127563121 0.0)
(0.017176601959 0.000170214560 0.0)
(0.015071501906 0.000147509276 0.0)
(0.012886995815 0.000192404853 0.0)
(0.010209287059 0.000218477862 0.0)
(0.006803992742 0.000324830395 0.0)
(0.001989170481 0.000400913982 0.0)
(-0.002619400294 0.000437299630 0.0)
(-0.005307724846 -0.000016981428 0.0)
(-0.004865389414 -0.001008600868 0.0)
(-0.000991311754 -0.001199160013 0.0)
(0.005082383442 0.000664103584 0.0)
(0.012214926328 0.004948595521 0.0)
(0.017273287337 0.009371678201 0.0)
(0.020022340229 0.012504587751 0.0)
(0.022463269413 0.015038747087 0.0)
(0.027504446152 0.019184227314 0.0)
(0.035798707667 0.025666264887 0.0)
(0.047376350926 0.034623297356 0.0)
(0.060422616986 0.044891102705 0.0)
(0.072448793447 0.054891803780 0.0)
(0.082668879914 0.064209420904 0.0)
(0.090119082068 0.071778550362 0.0)
(0.096511318224 0.078929302248 0.0)
(0.103194993444 0.086101605946 0.0)
(0.118085902975 0.099457172090 0.0)
(0.137321320809 0.114248100057 0.0)
(0.164056021272 0.131400487253 0.0)
(0.185539905368 0.136294745781 0.0)
(0.212288519702 0.133163001574 0.0)
(0.232593798542 0.109720552595 0.0)
(0.212843080717 0.061746054632 0.0)
(0.150243590955 0.021088214220 0.0)
(0.083977672743 0.004265856076 0.0)
(0.047677589361 0.000770877615 0.0)
(0.072220581475 0.000566580998 0.0)
(0.059119764305 -0.000699440118 0.0)
(0.029482767554 -0.001546153942 0.0)
(-0.004878459456 0.002525613644 0.0)
(-0.014936552289 0.006889458831 0.0)
(-0.010632465486 0.006228553184 0.0)
(-0.005583365626 0.003841783175 0.0)
(-0.003786115122 0.002982706020 0.0)
(-0.003568203295 0.003043285815 0.0)
(-0.004427368684 0.003903365090 0.0)
(-0.005845350111 0.005083891492 0.0)
(-0.007774950228 0.006653795074 0.0)
(-0.010214958880 0.008510019276 0.0)
(-0.012964495504 0.010571108858 0.0)
(-0.015857261857 0.012603152990 0.0)
(-0.018490177658 0.014390196277 0.0)
(-0.020709409182 0.015806553293 0.0)
(-0.022498496823 0.016760588704 0.0)
(-0.024346180059 0.017588018979 0.0)
(-0.026773463288 0.018487705670 0.0)
(-0.029603168396 0.019053077641 0.0)
(-0.032506501040 0.018823548735 0.0)
(-0.034605716999 0.017020872024 0.0)
(-0.034944911493 0.013676649768 0.0)
(-0.034154955404 0.010067931283 0.0)
(-0.034136657992 0.007095202731 0.0)
(-0.036454230956 0.004589952947 0.0)
(-0.044364907549 0.002959290282 0.0)
(-0.059630205136 0.002506403751 0.0)
(-0.077593003099 0.002416737295 0.0)
(-0.094305160094 0.002241746283 0.0)
(-0.108924771212 0.001933199733 0.0)
(-0.121239856608 0.001682151618 0.0)
(-0.131116095817 0.001235809894 0.0)
(-0.137561282506 0.000811245581 0.0)
(-0.142386271865 0.000661470529 0.0)
(-0.145823211728 0.000452952888 0.0)
(-0.147475466609 0.000157940309 0.0)
(-0.146631101686 -0.000298320583 0.0)
(-0.143705213663 -0.000412256441 0.0)
(-0.142234306521 -0.000000144789 0.0)
(-0.142177316850 0.000003782555 0.0)
(-0.140583179220 -0.000349682272 0.0)
(-0.136790802196 -0.000577182094 0.0)
(-0.132559056042 -0.000658397436 0.0)
(-0.128118364959 -0.000628796948 0.0)
(-0.124833525128 -0.000252009473 0.0)
(-0.123271188216 -0.000192025308 0.0)
(-0.120158086967 -0.000656203126 0.0)
(-0.115565748010 -0.000622520710 0.0)
(-0.110974178798 -0.000743274490 0.0)
(-0.105166635652 -0.000815263946 0.0)
(-0.099126883710 -0.000907229405 0.0)
(-0.092430763113 -0.001035820190 0.0)
(-0.084026099008 -0.001195418492 0.0)
(-0.076239691968 -0.001186478212 0.0)
(-0.068844988972 -0.000992029768 0.0)
(-0.061527020276 -0.001117788242 0.0)
(-0.054299990091 -0.001020523086 0.0)
(-0.046741868984 -0.001203431440 0.0)
(-0.038833593225 -0.001057382984 0.0)
(-0.031264365370 -0.001170142119 0.0)
(-0.025791834028 -0.000546507138 0.0)
(-0.022301556859 -0.000434559996 0.0)
(-0.019619337052 -0.000360539608 0.0)
(-0.017050305569 -0.000423349971 0.0)
(-0.014173795690 -0.000403513070 0.0)
(-0.010274783782 -0.000673944650 0.0)
(-0.004830374185 -0.000936218965 0.0)
(0.001770236122 -0.000955495763 0.0)
(0.006882590399 -0.000550957631 0.0)
(0.010335189628 -0.000461504482 0.0)
(0.014214153417 -0.000598444400 0.0)
(0.017958178852 -0.000444061814 0.0)
(0.021031714445 -0.000438996348 0.0)
(0.023583823694 -0.000392535745 0.0)
(0.026601841299 -0.000506214660 0.0)
(0.029725938725 -0.000421731130 0.0)
(0.031713907179 -0.000213375022 0.0)
(0.033315056796 -0.000280055461 0.0)
(0.035232550646 -0.000286973932 0.0)
(0.036847677251 -0.000216228442 0.0)
(0.037592924604 -0.000026849988 0.0)
(0.037426127386 0.000016889879 0.0)
(0.037332430932 0.000039630053 0.0)
(0.035820471351 0.000336910128 0.0)
(0.032738875086 0.000438746980 0.0)
(0.029641719996 0.000385315444 0.0)
(0.026393540248 0.000494570927 0.0)
(0.022479343370 0.000576217584 0.0)
(0.017233250421 0.000864759765 0.0)
(0.010061515758 0.001053643713 0.0)
(0.003760476811 0.001117159087 0.0)
(0.001128592944 0.000892335622 0.0)
(0.002737879460 0.000291769945 0.0)
(0.007443141632 0.000743308136 0.0)
(0.014444964614 0.003384971917 0.0)
(0.022863382740 0.009075469455 0.0)
(0.030356670787 0.015806496782 0.0)
(0.036398055700 0.022101896157 0.0)
(0.042814377956 0.028002570049 0.0)
(0.052119954495 0.035714221983 0.0)
(0.064250548415 0.045421294938 0.0)
(0.079096312504 0.057045007870 0.0)
(0.095345934203 0.070006117841 0.0)
(0.110637922903 0.083021008374 0.0)
(0.124015777546 0.095423853512 0.0)
(0.136076615721 0.107453216948 0.0)
(0.147620107052 0.119583827428 0.0)
(0.162093197254 0.133993386457 0.0)
(0.184420002976 0.153601542759 0.0)
(0.215699340044 0.177518628061 0.0)
(0.258553850478 0.204380487658 0.0)
(0.305898487602 0.221513921021 0.0)
(0.366260174810 0.226176505928 0.0)
(0.420059926797 0.195851867438 0.0)
(0.399755216618 0.118122678958 0.0)
(0.288429074352 0.044354346985 0.0)
(0.166038935211 0.010841235122 0.0)
(0.097057000102 0.002443079346 0.0)
(0.119312553602 0.001486161008 0.0)
(0.097292728883 -0.000704149878 0.0)
(0.054813545066 -0.002217469324 0.0)
(0.000959463329 0.002701866639 0.0)
(-0.019651245653 0.009159976444 0.0)
(-0.015633665188 0.008862759016 0.0)
(-0.008638376286 0.005762706481 0.0)
(-0.005885286862 0.004573032169 0.0)
(-0.005468492532 0.004659339048 0.0)
(-0.006681156585 0.005947670772 0.0)
(-0.008726386298 0.007659606650 0.0)
(-0.011412537006 0.009858285654 0.0)
(-0.014771945678 0.012433227106 0.0)
(-0.018535867635 0.015271999647 0.0)
(-0.022613028995 0.018160147912 0.0)
(-0.026530616262 0.020860458853 0.0)
(-0.030090039378 0.023187854271 0.0)
(-0.033279083815 0.024996963423 0.0)
(-0.036380887994 0.026438585788 0.0)
(-0.039731115844 0.027497814456 0.0)
(-0.042873852547 0.027507695784 0.0)
(-0.045533659074 0.026164208106 0.0)
(-0.047353508992 0.023048083512 0.0)
(-0.047704839016 0.018499191141 0.0)
(-0.047349393635 0.013953790283 0.0)
(-0.048360887951 0.010295845204 0.0)
(-0.052904330322 0.007248511596 0.0)
(-0.064844728766 0.005347974959 0.0)
(-0.084918616026 0.004724520278 0.0)
(-0.107276459311 0.004509937043 0.0)
(-0.127589113244 0.004094116227 0.0)
(-0.144691787830 0.003462453738 0.0)
(-0.158776678401 0.002959864621 0.0)
(-0.169522070484 0.002118891935 0.0)
(-0.176469746328 0.001374239530 0.0)
(-0.181459176325 0.001091728150 0.0)
(-0.184590212309 0.000682092397 0.0)
(-0.185417263032 0.000123432836 0.0)
(-0.183510162012 -0.000628693230 0.0)
(-0.179729286082 -0.000764307040 0.0)
(-0.177414938432 -0.000125407369 0.0)
(-0.176353586609 -0.000122338721 0.0)
(-0.173751027304 -0.000740834908 0.0)
(-0.168633436677 -0.001144689943 0.0)
(-0.162928797133 -0.001256420893 0.0)
(-0.157563686341 -0.001137618907 0.0)
(-0.153134892572 -0.000597032349 0.0)
(-0.150159865230 -0.000491270665 0.0)
(-0.145665133742 -0.001241452229 0.0)
(-0.139921025833 -0.001192989049 0.0)
(-0.133719325565 -0.001460018129 0.0)
(-0.126218606900 -0.001548380346 0.0)
(-0.118426118431 -0.001748864999 0.0)
(-0.109545835570 -0.002034268046 0.0)
(-0.099127664878 -0.002211981181 0.0)
(-0.089635615696 -0.002151460289 0.0)
(-0.080469013954 -0.001886193923 0.0)
(-0.071415443191 -0.002072136777 0.0)
(-0.062427969863 -0.001915546522 0.0)
(-0.053192875201 -0.002212140665 0.0)
(-0.043279868910 -0.002028225656 0.0)
(-0.034343108876 -0.002035501648 0.0)
(-0.027878631663 -0.001074429338 0.0)
(-0.023330466253 -0.000860322732 0.0)
(-0.019924631157 -0.000684878985 0.0)
(-0.016352431745 -0.000833264305 0.0)
(-0.012254482283 -0.000831535544 0.0)
(-0.007055550686 -0.001303728995 0.0)
(-0.000226104689 -0.001730134891 0.0)
(0.007627483996 -0.001724469437 0.0)
(0.013925080412 -0.001109948256 0.0)
(0.019013526212 -0.000962699456 0.0)
(0.024099340069 -0.001129634444 0.0)
(0.028957380768 -0.000889847501 0.0)
(0.033031437082 -0.000836636395 0.0)
(0.036425958599 -0.000772631870 0.0)
(0.040094856652 -0.000920630598 0.0)
(0.043763783387 -0.000773219992 0.0)
(0.046326495960 -0.000429000050 0.0)
(0.048576127952 -0.000560944532 0.0)
(0.051120057546 -0.000545637455 0.0)
(0.053263472543 -0.000434008034 0.0)
(0.054287157233 -0.000075058473 0.0)
(0.054363041432 -0.000019929326 0.0)
(0.054484479157 0.000042407440 0.0)
(0.052766750514 0.000613414789 0.0)
(0.049163735414 0.000791524049 0.0)
(0.045490486809 0.000708505305 0.0)
(0.041584315495 0.000894819892 0.0)
(0.036847845069 0.001071722236 0.0)
(0.030322645567 0.001604809647 0.0)
(0.021597958345 0.001946317077 0.0)
(0.014014660343 0.002050147884 0.0)
(0.011198331650 0.002175310874 0.0)
(0.013287357025 0.002122792906 0.0)
(0.018260784504 0.003306732728 0.0)
(0.025749409070 0.006693745303 0.0)
(0.034909507132 0.013616870152 0.0)
(0.044053556101 0.022203344077 0.0)
(0.052647292278 0.031115885862 0.0)
(0.062461359683 0.039918305381 0.0)
(0.074825694742 0.050272140544 0.0)
(0.089725212524 0.062364488166 0.0)
(0.107374728060 0.076343649992 0.0)
(0.125952689502 0.091289821234 0.0)
(0.143773214798 0.106698453955 0.0)
(0.159826288491 0.121747992215 0.0)
(0.175098467744 0.136844526266 0.0)
(0.191882906265 0.153861395701 0.0)
(0.212451838473 0.173746394669 0.0)
(0.241325493039 0.198673158395 0.0)
(0.282652407294 0.229809395972 0.0)
(0.335977789275 0.261783518902 0.0)
(0.405154713348 0.288961689943 0.0)
(0.488093456954 0.296506657737 0.0)
(0.567569334568 0.261987384361 0.0)
(0.561918905827 0.168209007878 0.0)
(0.430508616326 0.070869512186 0.0)
(0.263863247544 0.020469824283 0.0)
(0.160573372044 0.005393836579 0.0)
(0.176639098974 0.003086819960 0.0)
(0.143827967873 -0.000378384377 0.0)
(0.087857880961 -0.002768859877 0.0)
(0.012925804963 0.002379372847 0.0)
(-0.022336368957 0.010826039951 0.0)
(-0.020649097318 0.011382833506 0.0)
(-0.012296365269 0.007965234544 0.0)
(-0.008507122099 0.006521416760 0.0)
(-0.007837151243 0.006663487307 0.0)
(-0.009330726015 0.008369678297 0.0)
(-0.012044204029 0.010664689972 0.0)
(-0.015492760475 0.013496531761 0.0)
(-0.019725645061 0.016759406947 0.0)
(-0.024504153412 0.020387081325 0.0)
(-0.029692565230 0.024088791057 0.0)
(-0.034796484349 0.027628666485 0.0)
(-0.039548581590 0.030756546840 0.0)
(-0.043964371027 0.033282529103 0.0)
(-0.048174605958 0.035208901523 0.0)
(-0.052220796150 0.036226687916 0.0)
(-0.055574526786 0.035569621238 0.0)
(-0.058127693736 0.033203779928 0.0)
(-0.059887706873 0.028939929835 0.0)
(-0.060633808761 0.023393123701 0.0)
(-0.061143769726 0.018094546542 0.0)
(-0.063548731055 0.013873646649 0.0)
(-0.070463052960 0.010399027966 0.0)
(-0.085809960574 0.008263462901 0.0)
(-0.109267583723 0.007449554273 0.0)
(-0.134421095007 0.007035582269 0.0)
(-0.156638926320 0.006252945857 0.0)
(-0.174769902012 0.005198339051 0.0)
(-0.189229856421 0.004346388675 0.0)
(-0.199764458944 0.003055812817 0.0)
(-0.206610093690 0.001967817163 0.0)
(-0.211138758077 0.001498203038 0.0)
(-0.213467930681 0.000838680492 0.0)
(-0.213204079277 -0.000035158619 0.0)
(-0.210237659387 -0.001067641234 0.0)
(-0.205741083917 -0.001203240732 0.0)
(-0.202457421327 -0.000370528085 0.0)
(-0.200268161888 -0.000349331861 0.0)
(-0.196771407149 -0.001264213462 0.0)
(-0.190596074065 -0.001865586451 0.0)
(-0.183710931430 -0.001987398856 0.0)
(-0.177551674841 -0.001752409856 0.0)
(-0.172137839406 -0.001097976848 0.0)
(-0.167721310100 -0.000950551543 0.0)
(-0.162049166604 -0.001944157243 0.0)
(-0.155472490940 -0.001907484828 0.0)
(-0.147977539971 -0.002365515401 0.0)
(-0.139097061400 -0.002464901849 0.0)
(-0.129912079604 -0.002807445434 0.0)
(-0.119314151602 -0.003271553935 0.0)
(-0.107598173709 -0.003424735084 0.0)
(-0.096926755599 -0.003286556359 0.0)
(-0.086427921571 -0.002977308396 0.0)
(-0.076228020135 -0.003200244575 0.0)
(-0.066032460443 -0.002992866368 0.0)
(-0.055613440990 -0.003413400723 0.0)
(-0.044327385504 -0.003216606288 0.0)
(-0.034676943036 -0.002976549346 0.0)
(-0.027584429309 -0.001727712091 0.0)
(-0.022186194123 -0.001394273177 0.0)
(-0.018050810623 -0.001103409010 0.0)
(-0.013588445209 -0.001357135911 0.0)
(-0.008535393363 -0.001394363559 0.0)
(-0.002342241283 -0.002082879468 0.0)
(0.005478547082 -0.002667833339 0.0)
(0.014094357497 -0.002617794736 0.0)
(0.021283867310 -0.001834532009 0.0)
(0.027768772739 -0.001626851309 0.0)
(0.033914132569 -0.001783369307 0.0)
(0.039673370741 -0.001468121861 0.0)
(0.044528154846 -0.001321722419 0.0)
(0.048599356126 -0.001245830802 0.0)
(0.052794178518 -0.001403333454 0.0)
(0.056751610006 -0.001183543442 0.0)
(0.059846332651 -0.000720295462 0.0)
(0.062707968931 -0.000926288792 0.0)
(0.065789491275 -0.000867100077 0.0)
(0.068425722449 -0.000706824693 0.0)
(0.069721026023 -0.000146054255 0.0)
(0.070109574468 -0.000090490027 0.0)
(0.070425066572 0.000039656994 0.0)
(0.068692235677 0.000923523432 0.0)
(0.065033502075 0.001188891929 0.0)
(0.061180056369 0.001092844631 0.0)
(0.056970957038 0.001364574156 0.0)
(0.051755482668 0.001677106631 0.0)
(0.044527323718 0.002481124097 0.0)
(0.034997752513 0.003018509989 0.0)
(0.026575761884 0.003173657764 0.0)
(0.023449273948 0.003701098659 0.0)
(0.025469371466 0.004265464819 0.0)
(0.030342106828 0.006192042366 0.0)
(0.037914917234 0.010225952138 0.0)
(0.047341442580 0.018164112916 0.0)
(0.057533681217 0.028203856021 0.0)
(0.067952036931 0.039109043435 0.0)
(0.080407074339 0.050193043284 0.0)
(0.095245022867 0.062778742878 0.0)
(0.112173891368 0.076654570703 0.0)
(0.131594813379 0.092155443884 0.0)
(0.151792215058 0.108527311859 0.0)
(0.171436527798 0.125740167332 0.0)
(0.189737657191 0.142979943736 0.0)
(0.208371860532 0.161157267103 0.0)
(0.228632264148 0.181312807499 0.0)
(0.253645527030 0.205001177088 0.0)
(0.288151231000 0.234308140269 0.0)
(0.335664420647 0.269179818162 0.0)
(0.397544120849 0.305059219266 0.0)
(0.478886116623 0.335859961563 0.0)
(0.579752658970 0.346216400812 0.0)
(0.677665072593 0.308815026155 0.0)
(0.692529706969 0.208854263047 0.0)
(0.565236103934 0.098123539448 0.0)
(0.372379547618 0.032900224974 0.0)
(0.236681910670 0.009852715347 0.0)
(0.243272549873 0.005546701670 0.0)
(0.197993896821 0.000405605291 0.0)
(0.128446661187 -0.003107798401 0.0)
(0.031652458645 0.001693524587 0.0)
(-0.022465121641 0.011927780907 0.0)
(-0.025648759853 0.013853432912 0.0)
(-0.016633482057 0.010513314267 0.0)
(-0.011770077996 0.008903253100 0.0)
(-0.010772928667 0.009125579585 0.0)
(-0.012448155142 0.011224325349 0.0)
(-0.015792195688 0.014090001822 0.0)
(-0.020007240123 0.017559616893 0.0)
(-0.025071142072 0.021492192100 0.0)
(-0.030778259635 0.025840606336 0.0)
(-0.036956286526 0.030273819427 0.0)
(-0.043087247613 0.034527873800 0.0)
(-0.048833714403 0.038309755103 0.0)
(-0.054239533659 0.041376876599 0.0)
(-0.059270242397 0.043561180370 0.0)
(-0.063823293086 0.044382657759 0.0)
(-0.067352975047 0.043038611832 0.0)
(-0.069843308742 0.039718934812 0.0)
(-0.071826152867 0.034559180286 0.0)
(-0.073297815879 0.028248683267 0.0)
(-0.075027521722 0.022391041404 0.0)
(-0.079122976428 0.017745897233 0.0)
(-0.088368356936 0.013947492368 0.0)
(-0.106394354291 0.011577360130 0.0)
(-0.131962846107 0.010544315070 0.0)
(-0.158536914502 0.009848717978 0.0)
(-0.181357325750 0.008578265681 0.0)
(-0.199448983170 0.007027040928 0.0)
(-0.213375718127 0.005728795876 0.0)
(-0.223063356304 0.003977441006 0.0)
(-0.229452273247 0.002551353945 0.0)
(-0.233205859069 0.001829723125 0.0)
(-0.234481698087 0.000886513651 0.0)
(-0.233094812830 -0.000326290115 0.0)
(-0.229179638458 -0.001602259270 0.0)
(-0.224098478838 -0.001732711767 0.0)
(-0.219795870245 -0.000748179341 0.0)
(-0.216456025808 -0.000685198486 0.0)
(-0.212162783698 -0.001904714019 0.0)
(-0.205264725702 -0.002712428476 0.0)
(-0.197489216414 -0.002836115355 0.0)
(-0.190601791140 -0.002466621699 0.0)
(-0.184404762689 -0.001744727211 0.0)
(-0.178680548033 -0.001571276545 0.0)
(-0.172058982765 -0.002745495187 0.0)
(-0.164816427684 -0.002748648757 0.0)
(-0.156247822097 -0.003436334813 0.0)
(-0.146321722652 -0.003551792306 0.0)
(-0.136043860486 -0.004044870401 0.0)
(-0.124189807484 -0.004688292063 0.0)
(-0.111694992617 -0.004786263751 0.0)
(-0.100174766831 -0.004563046223 0.0)
(-0.088692441932 -0.004231117704 0.0)
(-0.077682514019 -0.004456228325 0.0)
(-0.066666316317 -0.004212963034 0.0)
(-0.055369720379 -0.004770950733 0.0)
(-0.043217349068 -0.004558728029 0.0)
(-0.033237110667 -0.003952908947 0.0)
(-0.025728828162 -0.002486477601 0.0)
(-0.019572274723 -0.002029923287 0.0)
(-0.014691242702 -0.001616234318 0.0)
(-0.009469058226 -0.001981643356 0.0)
(-0.003736571792 -0.002068674507 0.0)
(0.003116440628 -0.002973392345 0.0)
(0.011631953348 -0.003706026803 0.0)
(0.020695672332 -0.003607621872 0.0)
(0.028571690370 -0.002695852624 0.0)
(0.036150046478 -0.002433926397 0.0)
(0.043242800308 -0.002550667215 0.0)
(0.049736921946 -0.002160174390 0.0)
(0.055145597309 -0.001871814794 0.0)
(0.059733638845 -0.001793304783 0.0)
(0.064402886731 -0.001939247245 0.0)
(0.068532285826 -0.001636867970 0.0)
(0.072054307104 -0.001081330835 0.0)
(0.075435930493 -0.001363574017 0.0)
(0.078986497008 -0.001245571942 0.0)
(0.082058663609 -0.001024588045 0.0)
(0.083638388373 -0.000245575908 0.0)
(0.084351153333 -0.000188790655 0.0)
(0.084799961765 0.000035850474 0.0)
(0.083171963191 0.001239378472 0.0)
(0.079769479404 0.001593467762 0.0)
(0.076023789780 0.001513668483 0.0)
(0.071758894892 0.001879541251 0.0)
(0.066343372698 0.002359446164 0.0)
(0.058880184258 0.003433818596 0.0)
(0.049138408525 0.004211255917 0.0)
(0.040298750286 0.004429539003 0.0)
(0.036807963487 0.005377940413 0.0)
(0.038434413856 0.006579198392 0.0)
(0.042979688424 0.009218959079 0.0)
(0.050316451353 0.013798919025 0.0)
(0.059684401392 0.022534039924 0.0)
(0.070382234033 0.033656247762 0.0)
(0.082133238992 0.046055930341 0.0)
(0.096444929511 0.058808307595 0.0)
(0.112843745241 0.072910402672 0.0)
(0.131371077972 0.088181111381 0.0)
(0.152033704867 0.104778941785 0.0)
(0.173572117249 0.122365207862 0.0)
(0.194219407445 0.140686850239 0.0)
(0.214402133571 0.159709819696 0.0)
(0.235458403179 0.180068318554 0.0)
(0.258727627087 0.202801288621 0.0)
(0.287449251491 0.229493232327 0.0)
(0.325853258741 0.261521846907 0.0)
(0.377464607609 0.298331638776 0.0)
(0.445705672083 0.336560230649 0.0)
(0.534174403978 0.368010890186 0.0)
(0.645152239541 0.378155308634 0.0)
(0.755341237408 0.339201208631 0.0)
(0.789423026661 0.238696511815 0.0)
(0.682524582497 0.123465345260 0.0)
(0.483550262887 0.047324236017 0.0)
(0.322747928061 0.015943287921 0.0)
(0.317213700891 0.008986662899 0.0)
(0.258951938694 0.001771135594 0.0)
(0.176219775345 -0.003134051563 0.0)
(0.057674621820 0.000777678538 0.0)
(-0.019275390956 0.012460593539 0.0)
(-0.030365411515 0.016238950354 0.0)
(-0.021607365606 0.013381594140 0.0)
(-0.015739358545 0.011750320643 0.0)
(-0.014313950436 0.012062688065 0.0)
(-0.016083405229 0.014543821442 0.0)
(-0.019992023737 0.017952550515 0.0)
(-0.024934384458 0.022027897141 0.0)
(-0.030752525799 0.026581089745 0.0)
(-0.037248258349 0.031538712860 0.0)
(-0.044241623981 0.036577034714 0.0)
(-0.051173699515 0.041376125165 0.0)
(-0.057706538228 0.045649477533 0.0)
(-0.063813331566 0.049047575400 0.0)
(-0.069421827906 0.051301776355 0.0)
(-0.074290261618 0.051790380702 0.0)
(-0.077954008780 0.049759284398 0.0)
(-0.080555187785 0.045684761674 0.0)
(-0.082973217614 0.039855841131 0.0)
(-0.085436703407 0.033016984800 0.0)
(-0.088610910236 0.026773447333 0.0)
(-0.094562940180 0.021834595268 0.0)
(-0.105968371669 0.017789758586 0.0)
(-0.125941399058 0.015169487609 0.0)
(-0.152588242804 0.013885197631 0.0)
(-0.179494913439 0.012821299290 0.0)
(-0.201953237177 0.010958460070 0.0)
(-0.219269603555 0.008855874548 0.0)
(-0.232101231154 0.007030627805 0.0)
(-0.240660324322 0.004836869211 0.0)
(-0.246367687284 0.003096865642 0.0)
(-0.249233896988 0.002056705364 0.0)
(-0.249403254092 0.000803713421 0.0)
(-0.246961290724 -0.000742703589 0.0)
(-0.242225434284 -0.002222794506 0.0)
(-0.236675674751 -0.002361037309 0.0)
(-0.231360632201 -0.001265791995 0.0)
(-0.226937160110 -0.001140199040 0.0)
(-0.221966136484 -0.002643345508 0.0)
(-0.214581411892 -0.003662650999 0.0)
(-0.206189565337 -0.003794507789 0.0)
(-0.198636694547 -0.003275899353 0.0)
(-0.191859042232 -0.002521296896 0.0)
(-0.185031218226 -0.002350011139 0.0)
(-0.177615500090 -0.003642536861 0.0)
(-0.169819505012 -0.003704188331 0.0)
(-0.160344796100 -0.004659781666 0.0)
(-0.149663375310 -0.004796153680 0.0)
(-0.138548754060 -0.005429872084 0.0)
(-0.125865090493 -0.006238224113 0.0)
(-0.112915636827 -0.006271785488 0.0)
(-0.100758259157 -0.005963637988 0.0)
(-0.088566244727 -0.005633221604 0.0)
(-0.076923066280 -0.005819402807 0.0)
(-0.065324434713 -0.005560090377 0.0)
(-0.053356073530 -0.006262658914 0.0)
(-0.040749881297 -0.006007537176 0.0)
(-0.030622106732 -0.004954137250 0.0)
(-0.022795950868 -0.003346149015 0.0)
(-0.015913899109 -0.002769786471 0.0)
(-0.010305519738 -0.002223930718 0.0)
(-0.004473692881 -0.002698439476 0.0)
(0.001739201719 -0.002833680318 0.0)
(0.009006339251 -0.003947788819 0.0)