/*--------------------------------*- C++ -*----------------------------------*\
| =========                 |                                                 |
| \\      /  F ield         | OpenFOAM: The Open Source CFD Toolbox           |
|  \\    /   O peration     | Version:  2112                                  |
|   \\  /    A nd           | Website:  www.openfoam.com                      |
|    \\/     M anipulation  |                                                 |
\*---------------------------------------------------------------------------*/
FoamFile
{
    version     2.0;
    format      ascii;
    arch        "LSB;label=32;scalar=64";
    class       volVectorField;
    location    "1547";
    object      U_KOSST;
}
// * * * * * * * * * * * * * * * * * * * * * * * * * * * * * * * * * * * * * //

dimensions      [0 1 -1 0 0 0 0];

internalField   nonuniform List<vector> 
15600
(
(0.0191482283 -1.79811794e-05 -3.91008114e-24)
(0.0212736937 -0.000553987646 -1.60304821e-20)
(0.0137036349 -0.00170925046 0)
(-0.00145766441 0.000167426276 -3.61082947e-19)
(-0.00883377119 0.00388203149 -3.75875275e-23)
(-0.00819734965 0.00493852613 -1.68556636e-21)
(-0.00578298585 0.00413587373 -1.17148184e-18)
(-0.00465894656 0.00364659636 1.25382464e-18)
(-0.00379275767 0.003120836 -3.77058214e-16)
(-0.00319348418 0.00266227153 -4.05153836e-16)
(-0.0027002613 0.00222489201 3.89083452e-22)
(-0.00242332993 0.00195916348 -8.06850035e-22)
(-0.0022607156 0.00180097149 8.69174541e-22)
(-0.00222939545 0.00175634663 -1.87035024e-18)
(-0.00233180929 0.00182085069 -1.97005023e-18)
(-0.00254900971 0.00197668577 -2.02310326e-21)
(-0.00282199106 0.00216833686 -2.153433e-18)
(-0.00310466411 0.00233129794 4.52591583e-18)
(-0.00337045423 0.00243007984 -2.37890438e-18)
(-0.0035629643 0.00241828482 -2.52636362e-18)
(-0.00363214366 0.00226516214 2.67263568e-18)
(-0.00359266237 0.00199506675 -2.82729832e-18)
(-0.00348940435 0.00167187938 -4.38372672e-23)
(-0.00331735193 0.00132491165 -3.82297727e-23)
(-0.0031052163 0.00098169373 1.61815221e-18)
(-0.0029923025 0.000683701206 0)
(-0.00280907811 0.000378229582 -2.44935626e-16)
(-0.0035327875 0.000159687436 -2.49996832e-16)
(-0.00584412366 4.29031145e-05 7.99187225e-25)
(-0.0083262528 4.40961817e-05 2.38379975e-32)
(-0.0105868288 5.04778165e-05 0)
(-0.0127626819 5.36434677e-05 -2.84700655e-16)
(-0.0147223181 5.63624283e-05 -2.92004244e-16)
(-0.0164789821 5.7781398e-05 0)
(-0.0180261472 5.86271521e-05 0)
(-0.0193840416 5.88710911e-05 0)
(-0.0205702585 5.87161092e-05 0)
(-0.0216048772 5.81876212e-05 -3.7849631e-21)
(-0.0225047839 5.73425384e-05 3.17997723e-16)
(-0.0232846411 5.61916925e-05 3.31114466e-16)
(-0.0239561152 5.47489714e-05 -4.01622583e-21)
(-0.0245285836 5.30204435e-05 -4.28190408e-21)
(-0.0250095479 5.10192041e-05 4.280587e-21)
(-0.0254052194 4.87609593e-05 -4.57193491e-21)
(-0.0257207794 4.62608565e-05 4.57104324e-21)
(-0.0259606587 4.35385683e-05 0)
(-0.0261288047 4.0616782e-05 -4.28347099e-16)
(-0.026228875 3.75140477e-05 -4.4544938e-16)
(-0.0262643435 3.42506733e-05 -5.29886126e-21)
(-0.0262385807 3.08512563e-05 2.69205218e-21)
(-0.0261548626 2.73421257e-05 -2.8667517e-21)
(-0.0260164186 2.37467028e-05 5.82286455e-21)
(-0.0258264418 2.00877531e-05 -4.99023257e-16)
(-0.0255881141 1.63877178e-05 -5.15855483e-16)
(-0.0253046203 1.26683153e-05 -1.56865808e-21)
(-0.0249791498 8.95012315e-06 0)
(-0.0246148833 5.25225184e-06 9.79668652e-32)
(-0.024214989 1.59267824e-06 -8.75884535e-22)
(-0.0237826059 -2.01257393e-06 1.32555396e-21)
(-0.0233208278 -5.54898781e-06 -4.49554919e-22)
(-0.0228326943 -9.00358855e-06 0)
(-0.0223211732 -1.2365491e-05 9.6712558e-22)
(-0.0217891465 -1.56250459e-05 -9.67479619e-22)
(-0.0212394002 -1.87747162e-05 1.16530013e-31)
(-0.0206746043 -2.18082795e-05 0)
(-0.0200973054 -2.47213268e-05 -2.11173837e-21)
(-0.0195099066 -2.7510844e-05 2.11260254e-21)
(-0.0189146643 -3.01751757e-05 0)
(-0.0183136994 -3.27130867e-05 0)
(-0.0177090306 -3.51237945e-05 0)
(-0.0171026414 -3.74051577e-05 0)
(-0.016496528 -3.95558271e-05 0)
(-0.0158926437 -4.15771202e-05 7.96534715e-16)
(-0.0152928384 -4.34719027e-05 1.61440213e-15)
(-0.0146988152 -4.5244901e-05 8.17158049e-16)
(-0.0141120973 -4.69015857e-05 -1.99937501e-20)
(-0.0135340441 -4.84470626e-05 1.00744011e-20)
(-0.0129658922 -4.98856661e-05 -1.03640563e-20)
(-0.0124088204 -5.12203155e-05 1.03681705e-20)
(-0.0118641085 -5.24494691e-05 8.85535168e-16)
(-0.0113331623 -5.35751385e-05 8.88320973e-16)
(-0.0108176569 -5.45911931e-05 -1.07886072e-20)
(-0.0103193618 -5.5506775e-05 1.10516139e-20)
(-0.00984070064 -5.62981197e-05 -2.22365458e-20)
(-0.00938392839 -5.70018888e-05 1.11848117e-20)
(-0.00895328027 -5.75285104e-05 -2.28643532e-20)
(-0.00855164251 -5.80151215e-05 4.59785445e-20)
(-0.00818773219 -5.8169359e-05 -2.31137469e-20)
(-0.00786430663 -5.84613892e-05 -2.35780196e-20)
(-0.00759517322 -5.81803227e-05 4.73884597e-20)
(-0.00738943782 -5.89061127e-05 -2.3809462e-20)
(-0.00716533279 -6.0187527e-05 -2.94681413e-24)
(-0.00700764256 -0.000294068083 0)
(-0.00687857175 -0.000874993442 2.46520605e-20)
(-0.00674309979 -0.0014201216 -6.29830651e-18)
(-0.00649578676 -0.00189497311 -2.18356012e-22)
(-0.00600781803 -0.00221386039 -1.20042978e-17)
(-0.00529594258 -0.00233229926 -1.17368016e-17)
(-0.00432881322 -0.00218552037 1.1325692e-17)
(-0.00304733689 -0.00168579569 -1.09207479e-17)
(-0.00141633172 -0.000771132031 1.05369484e-17)
(0.000581420334 0.000551437661 1.01674947e-17)
(0.00291914262 0.00223107714 0)
(0.00558150935 0.0042000165 0)
(0.00835323734 0.00625796387 -9.11100817e-18)
(0.0110105407 0.00827078628 -8.72921135e-18)
(0.0136286223 0.0103304702 -8.30287966e-18)
(0.0163023436 0.0125325009 -7.82757358e-18)
(0.0192297332 0.015044582 -7.30352366e-18)
(0.0226784649 0.0181051863 6.71080226e-18)
(0.0276455696 0.0223134236 6.05401774e-18)
(0.0348412999 0.0276376154 -5.3409242e-18)
(0.0444965087 0.0335723236 4.5151627e-18)
(0.0580222077 0.0398913114 3.52264599e-18)
(0.076084841 0.0446516491 -2.24077277e-18)
(0.0963970612 0.0427698691 0)
(0.0958144233 0.0260069282 -5.48235664e-19)
(0.0670736268 0.0085658959 0)
(0.0352400891 0.00109877943 6.77121377e-20)
(0.0196621932 1.14747357e-05 0)
(0.0648609822 -9.18869109e-06 0)
(0.0681206301 -0.00148483055 -4.87799094e-23)
(0.047092176 -0.00463943464 -1.00196961e-22)
(0.00362110041 9.28406201e-05 3.90243424e-16)
(-0.0218356495 0.0107082923 4.91593461e-16)
(-0.0228332831 0.0141665642 -1.69763252e-18)
(-0.0166908288 0.0120899919 3.18383321e-24)
(-0.0134923112 0.0107276701 -1.93436516e-18)
(-0.0110681446 0.00923457508 5.8440687e-16)
(-0.00938133117 0.00791033864 6.22947007e-16)
(-0.00801235136 0.00664452856 -1.15980927e-21)
(-0.00723107316 0.00586759953 1.26268002e-21)
(-0.00678890458 0.00541218492 -1.32549408e-21)
(-0.00672169469 0.00529363366 -2.88856463e-18)
(-0.00703590597 0.00549647522 6.07182433e-18)
(-0.00767435278 0.00596473921 -3.08622225e-21)
(-0.00847645167 0.00653723744 3.32196651e-18)
(-0.00931578973 0.00702581051 -3.48878689e-18)
(-0.0101161856 0.00732223608 7.10832517e-21)
(-0.0107303267 0.00729245452 -7.57284391e-21)
(-0.0110317852 0.00685182711 -4.06940778e-18)
(-0.0110563201 0.00606911618 4.30941675e-18)
(-0.0109144278 0.00512185226 4.54565005e-18)
(-0.010601863 0.00409817991 -9.23288594e-21)
(-0.0102113682 0.00308590612 2.4613907e-18)
(-0.010098654 0.00218623544 -2.53928713e-18)
(-0.0100586239 0.00132564747 3.76983088e-16)
(-0.012648916 0.000786578797 3.72463312e-16)
(-0.019307834 0.000503344355 -2.4052143e-24)
(-0.0263259907 0.000483829031 -3.56671427e-32)
(-0.0326692002 0.000462334748 0)
(-0.0386397663 0.000426905448 4.27928238e-16)
(-0.0439499894 0.000385351352 4.24952206e-16)
(-0.0486510866 0.000342460798 2.00359943e-20)
(-0.0527512452 0.000302019817 -1.00691369e-20)
(-0.0563166973 0.000265153696 -1.05018467e-20)
(-0.0594042535 0.000232328623 1.04707611e-20)
(-0.0620727048 0.00020320254 7.90866761e-32)
(-0.0643706308 0.000177305633 -4.67577234e-16)
(-0.0663391582 0.000154046797 -4.75977899e-16)
(-0.0680108643 0.000132902532 0)
(-0.0694118785 0.000113435381 6.20823361e-21)
(-0.0705631952 9.53288583e-05 2.07587399e-22)
(-0.0714822185 7.83493019e-05 -6.40390507e-21)
(-0.0721835377 6.23149361e-05 -6.8389617e-21)
(-0.0726797025 4.71072891e-05 1.39025008e-20)
(-0.0729819297 3.26531457e-05 6.23752265e-16)
(-0.0731007266 1.88937061e-05 6.40228894e-16)
(-0.0730461557 5.79965528e-06 7.54273814e-21)
(-0.0728279046 -6.6386794e-06 0)
(-0.0724553086 -1.84325963e-05 -4.14812825e-21)
(-0.0719374844 -2.95906736e-05 4.14965512e-21)
(-0.0712833965 -4.01164036e-05 7.25126716e-16)
(-0.0705019271 -5.00089528e-05 7.44699086e-16)
(-0.0696019076 -5.92658354e-05 -2.3396706e-21)
(-0.0685921249 -6.7885819e-05 -6.59807202e-23)
(-0.0674812914 -7.5869827e-05 -6.608797e-23)
(-0.0662780361 -8.32200253e-05 2.47931984e-21)
(-0.064990865 -8.99427955e-05 -6.53648277e-22)
(-0.0636281269 -9.60467724e-05 6.54533051e-22)
(-0.0621979903 -0.000101542789 -6.88311703e-22)
(-0.0607084041 -0.000106446155 6.89353301e-22)
(-0.0591670654 -0.000110773112 2.89163212e-21)
(-0.0575813951 -0.000114544514 -2.89637542e-21)
(-0.0559584925 -0.000117782813 0)
(-0.0543051179 -0.000120514176 0)
(-0.0526276501 -0.000122766537 0)
(-0.0509320901 -0.00012456803 0)
(-0.0492240988 -0.000125941385 0)
(-0.0475090968 -0.000126901431 0)
(-0.0457924222 -0.000127448858 0)
(-0.0440794231 -0.000127585293 1.39785646e-20)
(-0.0423753121 -0.000127325778 -1.17215241e-15)
(-0.040685022 -0.00012669454 -2.39418432e-15)
(-0.0390131033 -0.000125724419 -1.22246836e-15)
(-0.0373636622 -0.000124450098 -2.97422614e-20)
(-0.0357404151 -0.000122899975 -2.14641775e-22)
(-0.0341468129 -0.000121091805 1.52494626e-20)
(-0.0325862358 -0.000119024243 1.56949666e-20)
(-0.0310623774 -0.000116667329 -1.31130253e-15)
(-0.0295793396 -0.000113992818 -1.34400534e-15)
(-0.0281419477 -0.000110939779 1.61794498e-20)
(-0.0267554709 -0.000107480623 0)
(-0.0254268241 -0.000103469308 3.36189637e-20)
(-0.0241630614 -9.89120767e-05 -3.36694074e-20)
(-0.0229759562 -9.33824062e-05 -3.44526128e-20)
(-0.021875345 -8.70983941e-05 3.44992224e-20)
(-0.0208845097 -7.88769579e-05 0)
(-0.0200147641 -7.00659866e-05 0)
(-0.0193046075 -5.7963946e-05 3.60058966e-20)
(-0.0187701244 -5.12301558e-05 -7.24010355e-20)
(-0.0182689779 -4.88990071e-05 3.63895203e-20)
(-0.0179833333 -0.000680003278 0)
(-0.0176491645 -0.00227046428 5.26464143e-23)
(-0.0171464474 -0.00374888252 0)
(-0.0162711938 -0.00502191028 9.35183206e-18)
(-0.0147248676 -0.0058403788 -1.83261066e-17)
(-0.0125612122 -0.00607621687 -3.50420623e-20)
(-0.00970261607 -0.00554915807 3.36409551e-20)
(-0.00601067452 -0.00402327934 3.28508756e-20)
(-0.00142816831 -0.00134311734 -1.62144624e-17)
(0.00406870533 0.00245747919 -2.7980341e-20)
(0.0104079498 0.00723354736 -1.49652203e-17)
(0.0175426699 0.0127935611 0)
(0.0249529079 0.0186121464 0)
(0.0321236188 0.0243500652 1.32570364e-17)
(0.0392183726 0.0302472041 1.25936808e-17)
(0.0464765206 0.036567668 1.18610775e-17)
(0.0543950344 0.0437713579 1.54193596e-20)
(0.0636792672 0.0525124624 -1.01357536e-17)
(0.0767443441 0.0643261299 -1.82365879e-17)
(0.0954493123 0.07906737 0)
(0.120627871 0.0953284881 0)
(0.155589219 0.112215509 -5.13721066e-18)
(0.202045654 0.124357679 -3.19734012e-18)
(0.255112338 0.11891225 8.56953623e-19)
(0.263037994 0.0754066246 7.96646753e-19)
(0.201048241 0.0280001189 0)
(0.118857873 0.00529840734 0)
(0.0718118355 0.000707534652 0)
(0.119634741 0.000264187415 0)
(0.12065789 -0.00222695109 2.47846199e-20)
(0.0873628218 -0.00734213329 0)
(0.0170816418 -0.00118754677 -3.96555481e-16)
(-0.0302854414 0.0158591762 -5.05515518e-16)
(-0.036071204 0.0223357052 1.74541035e-18)
(-0.0272717207 0.0195009586 0)
(-0.0221527434 0.0174260663 2.48210152e-22)
(-0.0182819233 0.0151061668 -2.13966221e-18)
(-0.0155694053 0.0130066501 2.30630707e-18)
(-0.0133809899 0.0110027901 2.16939651e-23)
(-0.0121141947 0.00976680347 -1.28959742e-21)
(-0.0114138954 0.00906155089 0)
(-0.0113234936 0.00890849944 2.98828431e-18)
(-0.0118523844 0.00927776737 1.14608599e-22)
(-0.0129047152 0.0100700204 -3.22023423e-21)
(-0.0142296213 0.0110240101 3.33160191e-21)
(-0.0156276739 0.0118369442 0)
(-0.0169755539 0.0123282923 0)
(-0.0180515239 0.0122871647 0)
(-0.0186731626 0.0115897747 0)
(-0.0188968882 0.0103453497 -4.43918111e-18)
(-0.0188860843 0.00882269362 -4.65084825e-18)
(-0.0186483578 0.00716355576 9.53434285e-21)
(-0.0183461585 0.00551256319 -9.45272796e-21)
(-0.0185059464 0.00401077207 5.18117809e-18)
(-0.0191447086 0.00264143113 2.61166358e-18)
(-0.0240262097 0.00183259557 1.01030097e-20)
(-0.0347908991 0.00141834255 2.41575811e-24)
(-0.0459310476 0.00135883107 0)
(-0.0559047069 0.00127124379 0)
(-0.0651061054 0.00115687323 0)
(-0.0731908303 0.00102900428 0)
(-0.0802631572 0.000903005822 0)
(-0.0863717124 0.000786491475 0)
(-0.0916340852 0.000682054124 0)
(-0.0961494676 0.00058993931 0)
(-0.100013646 0.000508839788 0)
(-0.103304585 0.000437120966 5.55172548e-21)
(-0.106087009 0.000373031673 -5.53564422e-21)
(-0.108412019 0.000315054277 5.88027196e-21)
(-0.110320558 0.000261964194 -5.8682054e-21)
(-0.111845653 0.000212867003 0)
(-0.113014726 0.000167100275 0)
(-0.113850865 0.000124157112 6.66787626e-21)
(-0.114374019 8.3691156e-05 2.24189701e-22)
(-0.114602034 4.5470703e-05 -6.88522303e-21)
(-0.114551765 9.3437389e-06 0)
(-0.114239485 -2.47528837e-05 0)
(-0.113680914 -5.68822962e-05 0)
(-0.11289096 -8.71148825e-05 0)
(-0.111884056 -0.000115496775 0)
(-0.110674324 -0.00014205649 4.29402061e-21)
(-0.109275683 -0.000166811604 -4.29769578e-21)
(-0.107701889 -0.000189774773 -2.27895991e-21)
(-0.105966549 -0.000210961429 -6.4270501e-23)
(-0.104083082 -0.000230390881 -6.44053336e-23)
(-0.102064708 -0.000248085842 2.41832494e-21)
(-0.0999244001 -0.00026407758 0)
(-0.0976748411 -0.000278402615 0)
(-0.095328392 -0.00029110217 0)
(-0.0928970457 -0.000302227146 0)
(-0.0903923827 -0.000311830642 2.83132701e-21)
(-0.0878255426 -0.000319975759 6.28382639e-23)
(-0.0852071647 -0.000326729083 -2.90942395e-21)
(-0.0825473681 -0.000332165163 0)
(-0.0798557028 -0.000336361022 -6.2236153e-21)
(-0.0771411704 -0.000339391625 6.24203959e-21)
(-0.0744122936 -0.000341315878 -6.501902e-21)
(-0.0716772737 -0.000342170571 -1.18178193e-22)
(-0.0689442018 -0.000341960622 -6.89408757e-21)
(-0.0662211532 -0.000340696072 1.35975116e-20)
(-0.0635159742 -0.00033841932 0)
(-0.0608360876 -0.000335195688 0)
(-0.0581883619 -0.000331109156 1.46335233e-20)
(-0.0555790494 -0.000326245369 2.17095578e-22)
(-0.0530138894 -0.000320671091 -1.49444366e-20)
(-0.0504983135 -0.000314421733 -1.54162546e-20)
(-0.0480377629 -0.000307480296 1.54644328e-20)
(-0.0456382244 -0.0002997619 -1.59233896e-20)
(-0.0433063928 -0.000291175226 -2.00122838e-22)
(-0.041050094 -0.000281558298 1.62209646e-20)
(-0.0388780431 -0.000270793074 3.33194105e-20)
(-0.036801416 -0.000258518676 3.79913374e-22)
(-0.0348322202 -0.000244609782 -3.38924583e-20)
(-0.0329891919 -0.000228096118 0)
(-0.0312897766 -0.000209111258 -3.51806916e-20)
(-0.0297699263 -0.000185188344 3.52722539e-20)
(-0.0284513944 -0.000158490545 3.60606212e-20)
(-0.0273947321 -0.000124116148 -3.61446548e-20)
(-0.0266186407 -9.97747215e-05 0)
(-0.0259893548 -8.32139408e-05 0)
(-0.0257113722 -0.000979903839 1.20212271e-18)
(-0.0251921765 -0.00327903456 9.63597996e-18)
(-0.0242484258 -0.00538134643 3.74633694e-20)
(-0.0226664609 -0.00714988714 -9.50431637e-18)
(-0.0200552776 -0.00819442131 -2.8593879e-21)
(-0.0164998439 -0.00832152908 0)
(-0.0118830269 -0.00726119902 0)
(-0.00599885843 -0.00467426723 3.35908469e-20)
(0.00121531242 -0.000352031282 -3.213231e-20)
(0.00977955017 0.00563568744 3.35584805e-20)
(0.0195844437 0.0130683003 1.52187716e-17)
(0.0305488317 0.0216537029 -1.46319144e-17)
(0.0419338347 0.0306547738 0)
(0.0530422263 0.0396111913 -1.3031872e-20)
(0.0640891137 0.0488534131 1.2484773e-20)
(0.0754298068 0.0587734424 0)
(0.0877999908 0.0700426918 1.11630227e-17)
(0.102282568 0.0836202769 0)
(0.122321126 0.10158204 9.17488861e-18)
(0.150644828 0.123619467 -9.11695572e-22)
(0.188610632 0.147605181 8.7187604e-22)
(0.240581625 0.17174836 5.09399316e-18)
(0.308652893 0.188077103 3.14213713e-18)
(0.386334159 0.179190373 -1.65285991e-18)
(0.407955932 0.11852911 -7.67616796e-19)
(0.333110112 0.0491547889 0)
(0.215327444 0.0118857317 -9.66359169e-20)
(0.138043069 0.00242772287 3.2895839e-23)
(0.184191049 0.00101193692 6.11805464e-24)
(0.179482704 -0.00267462459 -6.14837294e-24)
(0.134727641 -0.00976816033 1.32871742e-19)
(0.0394683751 -0.00348561408 0)
(-0.0333818664 0.0193562522 -1.5550693e-18)
(-0.0475447254 0.0294303637 -1.80634738e-18)
(-0.0373746898 0.0263226701 0)
(-0.0305560558 0.0237080627 0)
(-0.0253745663 0.020707405 2.21482635e-18)
(-0.0217154543 0.0179308965 -2.38728762e-18)
(-0.0187778439 0.0152827781 2.57257339e-18)
(-0.0170547262 0.0136453591 -1.33519813e-21)
(-0.0161238479 0.012740793 0)
(-0.0160272461 0.0125951067 -3.09206379e-18)
(-0.0167756882 0.0131606407 -3.24398327e-18)
(-0.0182345858 0.0142896445 3.32475435e-21)
(-0.0200741467 0.0156265648 -3.5450922e-18)
(-0.0220309857 0.0167629605 -3.69618824e-18)
(-0.0239388852 0.0174482973 3.8849391e-18)
(-0.0255198701 0.0174063609 -4.08035049e-18)
(-0.0265568242 0.0164884864 0)
(-0.0271280974 0.014839471 4.53138357e-18)
(-0.0274381246 0.0127982579 9.27826467e-21)
(-0.0275152289 0.0105534709 -4.97625925e-18)
(-0.0275923463 0.00830013622 -2.56548186e-18)
(-0.0283408825 0.00621262244 -2.65626416e-18)
(-0.0301819838 0.00439215613 -1.3158682e-18)
(-0.0376621649 0.00333737199 3.23050008e-19)
(-0.0521711198 0.00280226564 -2.39389847e-24)
(-0.0668904792 0.00267098494 -9.68525803e-21)
(-0.0798994793 0.00246403285 9.53841302e-21)
(-0.0916484896 0.00221951206 0)
(-0.101825593 0.00195652753 0)
(-0.110605917 0.00170467033 -9.68806069e-21)
(-0.118099566 0.00147515179 9.60161216e-21)
(-0.12447901 0.00127161674 -9.96869324e-21)
(-0.129886668 0.00109314136 9.89785047e-21)
(-0.134452413 0.000936595476 0)
(-0.138280402 0.000798399994 0)
(-0.141455666 0.00067502462 0)
(-0.144045194 0.000563478791 0)
(-0.146102679 0.00046140142 5.77286742e-21)
(-0.147671631 0.000367066186 -5.75249227e-21)
(-0.148788275 0.000279196802 -6.12628002e-21)
(-0.149483234 0.000196822985 1.24267513e-20)
(-0.149783051 0.000119248841 -6.30270278e-21)
(-0.149711387 4.60179161e-05 0)
(-0.149290603 -2.30428527e-05 0)
(-0.148543318 -8.80251564e-05 0)
(-0.14749085 -0.000149130712 0)
(-0.146152915 -0.000206525332 -3.78955649e-21)
(-0.144548527 -0.000260306493 -8.64756971e-16)
(-0.142696182 -0.000310537141 -8.94854959e-16)
(-0.140613985 -0.00035726077 -4.0204496e-21)
(-0.138319699 -0.00040051207 -4.26075073e-21)
(-0.135830771 -0.00044033045 4.26390346e-21)
(-0.133164294 -0.00047676157 0)
(-0.130337003 -0.000509857686 0)
(-0.127365227 -0.000539685166 0)
(-0.124264853 -0.000566319789 0)
(-0.121051296 -0.000589845712 0)
(-0.117739454 -0.000610363444 0)
(-0.114343667 -0.000627978021 0)
(-0.110877693 -0.000642811364 0)
(-0.107354646 -0.000654991723 0)
(-0.103786984 -0.000664660305 0)
(-0.100186469 -0.000671960721 -5.82822405e-21)
(-0.0965642112 -0.000677029602 1.33469254e-15)
(-0.0929307725 -0.000679971923 1.35959158e-15)
(-0.0892963634 -0.000680851202 -6.12614987e-21)
(-0.0856710757 -0.000679679586 1.27476949e-20)
(-0.0820649511 -0.000676483277 -1.28044597e-20)
(-0.0784877225 -0.000671346269 1.32947115e-20)
(-0.074948604 -0.000664393018 -1.33566652e-20)
(-0.0714561602 -0.000655777388 0)
(-0.0680182716 -0.000645651201 1.4113041e-20)
(-0.0646422908 -0.000634126803 -1.418178e-20)
(-0.0613353225 -0.000621252605 0)
(-0.0581046422 -0.000606976593 0)
(-0.0549583249 -0.000591127441 0)
(-0.051905453 -0.000573511351 0)
(-0.0489566244 -0.000553814095 0)
(-0.0461237908 -0.000531759114 0)
(-0.0434221058 -0.000506673634 0)
(-0.0408683586 -0.000478164014 -3.30533648e-20)
(-0.038487743 -0.000444527723 6.6811848e-20)
(-0.0363051649 -0.000405562093 -6.78765026e-20)
(-0.0343678697 -0.000357233491 3.43002145e-20)
(-0.0327082171 -0.000302216621 0)
(-0.0314065703 -0.000233467494 0)
(-0.0304857513 -0.000178572291 0)
(-0.029868414 -0.000131758045 -3.67473049e-20)
(-0.0297184933 -0.00115440585 -2.33840209e-18)
(-0.0290174087 -0.00384271201 -4.73630786e-18)
(-0.0275584591 -0.006239732 9.45418612e-18)
(-0.025209247 -0.0081818115 3.67014474e-20)
(-0.0215587757 -0.00916904547 3.66177945e-17)
(-0.0167175912 -0.0089632109 -3.5108885e-20)
(-0.010537827 -0.00723488891 3.38040611e-20)
(-0.00275699569 -0.0035838385 1.68863527e-17)
(0.0066825038 0.00221765486 -1.62073704e-17)
(0.0177916345 0.0100634626 -1.55332313e-17)
(0.0304360298 0.0196804696 -2.90578904e-20)
(0.0445036088 0.0307059744 3.05922364e-20)
(0.0591319986 0.0422994377 -1.33553343e-20)
(0.073538039 0.0539538498 2.56375971e-20)
(0.0879548823 0.0660421565 -1.25199555e-17)
(0.102819638 0.0790404041 1.14084903e-20)
(0.119039368 0.0937535605 -1.10153821e-17)
(0.137993309 0.111330013 -4.80325492e-21)
(0.16377062 0.134042786 4.51407955e-21)
(0.19971195 0.161369756 8.9176362e-22)
(0.24758092 0.190608664 -8.47451476e-22)
(0.312085754 0.218963112 0)
(0.395152992 0.236557654 0)
(0.48954152 0.224015968 5.48519396e-21)
(0.527179861 0.153710634 7.39170182e-19)
(0.456149035 0.0702431209 0)
(0.319837318 0.0204739017 9.27382845e-20)
(0.217420707 0.00536591094 0)
(0.257929813 0.00243602234 0)
(0.244592881 -0.0027075545 2.4730802e-20)
(0.189013467 -0.0118853378 1.20191571e-21)
(0.0710272386 -0.00663723688 1.61431567e-22)
(-0.0301696257 0.0211331777 1.56156072e-18)
(-0.0568181363 0.0354351395 1.85627877e-18)
(-0.0468283486 0.0325214494 0)
(-0.0386152735 0.0295436244 0)
(-0.0322845783 0.026013924 2.28464085e-18)
(-0.0277764395 0.0226664687 2.46640311e-18)
(-0.0241724213 0.0194709813 -2.66199023e-18)
(-0.0220326075 0.0174938629 0)
(-0.0209044169 0.0164425369 -3.0331121e-18)
(-0.0208223902 0.0163468368 8.36765654e-23)
(-0.0217966986 0.0171380538 -3.34876921e-18)
(-0.0236542598 0.0186159191 3.49254529e-18)
(-0.0259978637 0.0203367442 -1.51673643e-22)
(-0.0285105237 0.0217956902 3.79606416e-18)
(-0.0309895865 0.0226766745 -3.97481485e-18)
(-0.0331203891 0.0226508387 8.48961967e-21)
(-0.034672626 0.0215570493 -8.5398691e-21)
(-0.0357487843 0.0195688727 0)
(-0.0365842295 0.0170754845 4.84661154e-18)
(-0.0372341059 0.0143041419 5.04344894e-18)
(-0.0379981503 0.011491271 0)
(-0.0396816228 0.0088512137 -2.64809643e-18)
(-0.0431820015 0.0066249831 1.03131582e-20)
(-0.0533692827 0.00529891368 -3.27453803e-19)
(-0.0710697584 0.00461622735 1.1633014e-24)
(-0.0886153182 0.00436500698 -9.34337329e-21)
(-0.103845781 0.00397334348 1.83420133e-20)
(-0.117271943 0.00353980128 -9.02096838e-21)
(-0.128690768 0.00309110513 9.08843243e-21)
(-0.138368491 0.00267150122 -8.93936465e-21)
(-0.146492478 0.0022944951 9.1595628e-21)
(-0.153291836 0.00196331681 2.20508302e-22)
(-0.158950888 0.00167450054 -9.13010018e-21)
(-0.163629721 0.00142200422 0)
(-0.167454794 0.00119947314 0)
(-0.170527869 0.00100099373 -9.90125768e-21)
(-0.172928996 0.000821673399 9.80349348e-21)
(-0.174722428 0.000657713262 0)
(-0.175960489 0.00050633704 -5.30719661e-21)
(-0.176686866 0.000365487543 5.26562223e-21)
(-0.176938545 0.000233587013 0)
(-0.17674754 0.000109477617 -5.73557799e-21)
(-0.176142105 -7.41064828e-06 5.69803959e-21)
(-0.175150932 -0.000117228433 0)
(-0.173802104 -0.000220268729 0)
(-0.172120275 -0.000316944543 0)
(-0.170128702 -0.00040753737 3.26722912e-21)
(-0.167849689 -0.00049221907 7.46531904e-16)
(-0.165304756 -0.000571110287 7.63269632e-16)
(-0.162514779 -0.000644302321 3.4348784e-21)
(-0.159500062 -0.000711872946 0)
(-0.156280372 -0.000773905915 0)
(-0.152874924 -0.000830492984 0)
(-0.149302396 -0.000881735165 0)
(-0.145580894 -0.000927752589 0)
(-0.141727936 -0.000968678331 0)
(-0.137760435 -0.00100465707 0)
(-0.133694669 -0.00103585602 0)
(-0.129546257 -0.00106244881 2.22618406e-21)
(-0.125330137 -0.00108463237 -2.23182254e-21)
(-0.121060529 -0.00110261217 0)
(-0.116750927 -0.00111661044 0)
(-0.112414083 -0.00112684943 0)
(-0.108062071 -0.0011335358 -1.11761753e-15)
(-0.103706421 -0.00113682465 -1.14926005e-15)
(-0.0993583296 -0.00113680707 -5.15794052e-21)
(-0.0950288976 -0.00113350432 -1.07414952e-20)
(-0.0907291561 -0.00112696527 1.07999306e-20)
(-0.086469789 -0.00111732546 0)
(-0.0822609326 -0.00110477867 1.1472695e-20)
(-0.0781120723 -0.00108955636 -2.32659652e-20)
(-0.0740320459 -0.00107187877 -1.74462828e-22)
(-0.0700292494 -0.00105189773 -1.72372202e-22)
(-0.0661119723 -0.00102965756 1.2310984e-20)
(-0.0622888831 -0.00100504228 2.54794671e-20)
(-0.0585697059 -0.000977756992 -2.56699138e-20)
(-0.0549654404 -0.000947460168 0)
(-0.051488949 -0.000913629538 0)
(-0.0481548535 -0.000875751357 2.76145336e-20)
(-0.0449816384 -0.000832740007 -5.60244805e-20)
(-0.0419901132 -0.000783774888 2.84259131e-20)
(-0.0392109359 -0.000726246467 2.93231026e-20)
(-0.0366752647 -0.000659319534 -2.96196007e-20)
(-0.034439793 -0.000577169671 0)
(-0.0325459066 -0.000482530414 0)
(-0.0310913981 -0.00036609531 0)
(-0.030107127 -0.00026411338 0)
(-0.0295990201 -0.000167592714 -3.41051229e-28)
(-0.0296572478 -0.00117708559 1.05033224e-18)
(-0.0287782377 -0.00393123563 3.38211471e-20)
(-0.0267726827 -0.00629299191 -8.60683505e-18)
(-0.0236686447 -0.00809404777 0)
(-0.0190910939 -0.00876360672 -3.29914474e-17)
(-0.0131662106 -0.00804086194 0)
(-0.00572371023 -0.00556741775 0)
(0.00354270586 -0.000920406033 -1.50699502e-17)
(0.014684318 0.00612320415 1.44206825e-17)
(0.0277041256 0.0154302833 2.70602573e-20)
(0.0424594672 0.0267040702 -1.32664649e-17)
(0.0588187449 0.0395468376 1.27618001e-17)
(0.0758962369 0.0531170783 0)
(0.0929042564 0.0669245091 0)
(0.110067681 0.0813489179 1.15117857e-17)
(0.127865678 0.0969050731 -1.96720143e-22)
(0.147302811 0.114455976 1.027543e-17)
(0.169947314 0.135220986 9.43425881e-18)
(0.200169172 0.16137626 4.22911397e-21)
(0.241671542 0.192138071 -7.26822006e-18)
(0.296464864 0.224336915 5.93602175e-18)
(0.369047393 0.254195059 4.39331847e-18)
(0.460764718 0.270567279 2.61472367e-18)
(0.564353114 0.254052641 6.96693636e-19)
(0.617375176 0.179713877 1.82546075e-22)
(0.56215272 0.0892971349 -1.84079691e-22)
(0.424778308 0.0302248873 -8.4088612e-20)
(0.306439142 0.00948072419 0)
(0.337568165 0.00462906704 -5.78180456e-24)
(0.314357519 -0.00219069329 -2.32531846e-20)
(0.249209144 -0.0135778853 -1.23753402e-19)
(0.111588453 -0.0104447722 -1.54842687e-22)
(-0.0196532365 0.0210883827 -3.10502977e-18)
(-0.0633570862 0.0402841961 -1.90613172e-18)
(-0.0554441213 0.0380468638 2.02682533e-18)
(-0.0462481319 0.0348899827 -2.18850056e-18)
(-0.0389568207 0.0309919253 -2.35874774e-18)
(-0.0337152171 0.0271901224 -5.09310878e-18)
(-0.029537208 0.0235493534 1.32778694e-21)
(-0.0270285539 0.0212993828 -2.89839763e-21)
(-0.0257397895 0.0201564709 3.13856345e-18)
(-0.0256944947 0.0201541048 6.59786638e-18)
(-0.0269000654 0.0211992797 3.44614139e-18)
(-0.0291457089 0.0230361719 -3.58611021e-18)
(-0.0319783691 0.0251396727 -1.48070196e-22)
(-0.0350384776 0.0269184056 7.61909768e-21)
(-0.0380953778 0.0279974315 7.96676934e-23)
(-0.0408175746 0.0280089817 8.47352171e-18)
(-0.0429814523 0.026789653 0)
(-0.0447154859 0.0245332851 -4.64687409e-18)
(-0.046277579 0.0216607137 -4.86279089e-18)
(-0.047752886 0.0184286805 0)
(-0.049501014 0.0151060498 0)
(-0.0524493367 0.0119578776 2.61123866e-18)
(-0.0579158529 0.00934693673 4.77554766e-24)
(-0.0706399068 0.00768286454 2.85188325e-19)
(-0.0907017964 0.00679612676 9.01319047e-21)
(-0.110011625 0.00635707674 0)
(-0.126357899 0.00570428025 -8.49898886e-21)
(-0.140354464 0.00501819431 8.23229466e-21)
(-0.151972797 0.00433444637 0)
(-0.16159144 0.00370925839 8.11157028e-21)
(-0.169484137 0.00315572089 -7.89604112e-21)
(-0.175934262 0.00267418375 0)
(-0.18116227 0.00225683595 0)
(-0.185351177 0.00189345332 0)
(-0.188642834 0.00157404984 0)
(-0.191149568 0.00128976248 8.28328188e-21)
(-0.192959255 0.00103342416 -8.12935541e-21)
(-0.194142253 0.000799545665 -8.51794663e-21)
(-0.194755856 0.000584113833 1.27078547e-20)
(-0.194847823 0.000384134521 -4.26300183e-21)
(-0.1944584 0.000197298964 0)
(-0.193622201 2.20478349e-05 0)
(-0.192371859 -0.000142269099 0)
(-0.190739868 -0.000296079312 0)
(-0.18875341 -0.000440012486 0)
(-0.186437848 -0.000574675581 0)
(-0.183817445 -0.000700485184 5.06825456e-21)
(-0.180915377 -0.000817724091 -5.02535779e-21)
(-0.177753875 -0.000926606961 0)
(-0.17435437 -0.00102730651 0)
(-0.170737589 -0.00111997454 0)
(-0.166923599 -0.00120476718 -1.41800266e-21)
(-0.162931825 -0.00128184748 1.41237901e-21)
(-0.158781068 -0.00135138772 0)
(-0.154489498 -0.00141358164 0)
(-0.150074645 -0.00146863691 0)
(-0.145553402 -0.0015167739 0)
(-0.140942003 -0.00155823934 0)
(-0.136256011 -0.00159328655 0)
(-0.131510306 -0.00162219649 1.70620402e-21)
(-0.126719056 -0.00164525915 -1.70929563e-21)
(-0.121895724 -0.00166278277 0)
(-0.117053057 -0.00167507097 0)
(-0.112203167 -0.00168240024 0)
(-0.107357668 -0.00168497332 0)
(-0.102527895 -0.00168290505 0)
(-0.0977251243 -0.00167622374 8.00348013e-21)
(-0.0929605791 -0.00166500119 1.36267957e-22)
(-0.088245146 -0.00164942494 -8.23589698e-21)
(-0.0835891927 -0.00162975617 0)
(-0.0790024934 -0.00160629824 0)
(-0.0744942617 -0.00157932926 0)
(-0.0700733845 -0.00154902458 0)
(-0.0657487819 -0.00151540174 1.8710304e-20)
(-0.0615299196 -0.00147825108 -3.8007305e-20)
(-0.0574275034 -0.00143712116 1.93101821e-20)
(-0.0534536938 -0.00139148149 -2.00025511e-20)
(-0.0496227465 -0.00134055633 2.02132115e-20)
(-0.0459509256 -0.00128352195 0)
(-0.042458787 -0.00121880683 0)
(-0.0391695945 -0.00114500945 2.19331075e-20)
(-0.0361173813 -0.00105851386 -2.22360032e-20)
(-0.0333370219 -0.000957524367 0)
(-0.0308910228 -0.0008343514 2.36658802e-20)
(-0.0288263964 -0.000691074245 -2.41004687e-20)
(-0.0272532887 -0.000515875104 0)
(-0.0262121133 -0.00035041712 -2.58704414e-20)
(-0.0257909277 -0.000184501416 2.65380183e-20)
(-0.0260326043 -0.00106783043 -2.75329629e-20)
(-0.0250081635 -0.00362368795 2.72854089e-20)
(-0.0225349817 -0.00569736459 0)
(-0.0188245887 -0.00713591777 -6.72773025e-18)
(-0.013555123 -0.00733447459 1.30642683e-17)
(-0.00685339268 -0.00602484592 1.27567127e-17)