/*--------------------------------*- C++ -*----------------------------------*\
| =========                 |                                                 |
| \\      /  F ield         | OpenFOAM: The Open Source CFD Toolbox           |
|  \\    /   O peration     | Version:  2112                                  |
|   \\  /    A nd           | Website:  www.openfoam.com                      |
|    \\/     M anipulation  |                                                 |
\*---------------------------------------------------------------------------*/
FoamFile
{
    version     2.0;
    format      ascii;
    arch        "LSB;label=32;scalar=64";
    class       volScalarField;
    location    "1547";
    object      V;
}
// * * * * * * * * * * * * * * * * * * * * * * * * * * * * * * * * * * * * * //

dimensions      [0 3 0 0 0 0 0];

internalField   nonuniform List<scalar> 
15600
(
6.26298287e-05
6.26439683e-05
6.24313339e-05
6.13079706e-05
5.89783777e-05
5.7309957e-05
5.70672004e-05
5.80362156e-05
5.99753286e-05
6.27706461e-05
6.62944249e-05
6.99452446e-05
7.3460663e-05
7.68379803e-05
8.00745551e-05
8.31697727e-05
8.62518583e-05
8.96769248e-05
9.35153224e-05
9.77603196e-05
0.000102399342
0.000107368467
0.000112246182
0.000116685317
0.000120462226
0.000123334896
0.000125053069
0.000125419171
0.000125259657
0.000125259657
0.000125259657
0.000125259657
0.000125259657
0.000125259657
0.000125259657
0.000125259657
0.000125259657
0.000125259657
0.000125259657
0.000125259657
0.000125259657
0.000125259657
0.000125259657
0.000125259657
0.000125259657
0.000125259657
0.000125259657
0.000125259657
0.000125259657
0.000125259657
0.000125259657
0.000125259657
0.000125259657
0.000125259657
0.000125259657
0.000125259657
0.000125259657
0.000125259657
0.000125259657
0.000125259657
0.000125259657
0.000125259657
0.000125259657
0.000125259657
0.000125259657
0.000125259657
0.000125259657
0.000125259657
0.000125259657
0.000125259657
0.000125259657
0.000125259657
0.000125259657
0.000125259657
0.000125259657
0.000125259657
0.000125259657
0.000125259657
0.000125259657
0.000125259657
0.000125259657
0.000125259657
0.000125259657
0.000125259657
0.000125259657
0.000125259657
0.000125259657
0.000125259657
0.000125259657
0.000125259657
0.000125259657
0.000125259657
0.000125419171
0.000125053069
0.000123334896
0.000120462226
0.000116685317
0.000112246182
0.000107368467
0.000102399342
9.77603196e-05
9.35153224e-05
8.96769248e-05
8.62518583e-05
8.31697727e-05
8.00745551e-05
7.68379803e-05
7.3460663e-05
6.99452446e-05
6.62944249e-05
6.27706461e-05
5.99753286e-05
5.80362156e-05
5.70672004e-05
5.7309957e-05
5.89783777e-05
6.13079706e-05
6.24313339e-05
6.26439683e-05
6.26298287e-05
6.49077492e-05
6.49225877e-05
6.47044996e-05
6.35484918e-05
6.1150014e-05
5.94367483e-05
5.91970905e-05
6.02095064e-05
6.22240454e-05
6.51228181e-05
6.87736916e-05
7.25555705e-05
7.61974744e-05
7.96966446e-05
8.30503855e-05
8.62580971e-05
8.94521897e-05
9.30002974e-05
9.69749399e-05
0.000101369024
0.00010616939
0.000111309824
0.000116354896
0.000120945979
0.000124852005
0.000127822941
0.000129600253
0.00012997984
0.000129815498
0.000129815498
0.000129815498
0.000129815498
0.000129815498
0.000129815498
0.000129815498
0.000129815498
0.000129815498
0.000129815498
0.000129815498
0.000129815498
0.000129815498
0.000129815498
0.000129815498
0.000129815498
0.000129815498
0.000129815498
0.000129815498
0.000129815498
0.000129815498
0.000129815498
0.000129815498
0.000129815498
0.000129815498
0.000129815498
0.000129815498
0.000129815498
0.000129815498
0.000129815498
0.000129815498
0.000129815498
0.000129815498
0.000129815498
0.000129815498
0.000129815498
0.000129815498
0.000129815498
0.000129815498
0.000129815498
0.000129815498
0.000129815498
0.000129815498
0.000129815498
0.000129815498
0.000129815498
0.000129815498
0.000129815498
0.000129815498
0.000129815498
0.000129815498
0.000129815498
0.000129815498
0.000129815498
0.000129815498
0.000129815498
0.000129815498
0.000129815498
0.000129815498
0.000129815498
0.000129815498
0.000129815498
0.000129815498
0.000129815498
0.00012997984
0.000129600253
0.000127822941
0.000124852005
0.000120945979
0.000116354896
0.000111309824
0.00010616939
0.000101369024
9.69749399e-05
9.30002974e-05
8.94521897e-05
8.62580971e-05
8.30503855e-05
7.96966446e-05
7.61974744e-05
7.25555704e-05
6.87736916e-05
6.51228181e-05
6.22240454e-05
6.02095064e-05
5.91970905e-05
5.94367483e-05
6.1150014e-05
6.35484918e-05
6.47044996e-05
6.49225877e-05
6.49077492e-05
6.72678936e-05
6.72834701e-05
6.70599028e-05
6.58706892e-05
6.34020308e-05
6.16434914e-05
6.14079406e-05
6.24659368e-05
6.45589923e-05
6.75650889e-05
7.13475643e-05
7.52651033e-05
7.90379553e-05
8.26633027e-05
8.61383975e-05
8.94626576e-05
9.27727931e-05
9.64482682e-05
0.000100563821
0.000105111974
0.000110078954
0.000115396171
0.000120613886
0.000125361688
0.000129400872
0.000132473153
0.000134311486
0.000134705059
0.000134535786
0.000134535787
0.000134535787
0.000134535787
0.000134535787
0.000134535787
0.000134535787
0.000134535787
0.000134535787
0.000134535787
0.000134535787
0.000134535787
0.000134535787
0.000134535787
0.000134535787
0.000134535787
0.000134535787
0.000134535787
0.000134535787
0.000134535787
0.000134535787
0.000134535787
0.000134535787
0.000134535787
0.000134535787
0.000134535787
0.000134535787
0.000134535787
0.000134535787
0.000134535787
0.000134535787
0.000134535787
0.000134535787
0.000134535787
0.000134535787
0.000134535787
0.000134535787
0.000134535787
0.000134535787
0.000134535787
0.000134535787
0.000134535787
0.000134535787
0.000134535787
0.000134535787
0.000134535787
0.000134535787
0.000134535787
0.000134535787
0.000134535787
0.000134535787
0.000134535787
0.000134535787
0.000134535787
0.000134535787
0.000134535787
0.000134535787
0.000134535787
0.000134535787
0.000134535787
0.000134535787
0.000134535787
0.000134535787
0.000134535786
0.000134705059
0.000134311486
0.000132473153
0.000129400872
0.000125361688
0.000120613886
0.000115396171
0.000110078954
0.000105111974
0.000100563821
9.64482682e-05
9.27727931e-05
8.94626576e-05
8.61383975e-05
8.26633027e-05
7.90379553e-05
7.52651033e-05
7.13475643e-05
6.75650889e-05
6.45589923e-05
6.24659368e-05
6.14079406e-05
6.16434914e-05
6.34020308e-05
6.58706892e-05
6.70599028e-05
6.72834701e-05
6.72678936e-05
6.97131826e-05
6.97295387e-05
6.95004787e-05
6.82775251e-05
6.57374343e-05
6.39332675e-05
6.37029356e-05
6.48088155e-05
6.69836158e-05
7.01010523e-05
7.4019791e-05
7.80777448e-05
8.19861578e-05
8.5742155e-05
8.93429371e-05
9.27879434e-05
9.62183009e-05
0.000100025615
0.000104286889
0.00010899424
0.000114133249
0.000119632866
0.000125028639
0.000129938045
0.000134114524
0.000137291304
0.00013919259
0.000139600666
0.000139426365
0.000139426365
0.000139426365
0.000139426365
0.000139426365
0.000139426365
0.000139426365
0.000139426365
0.000139426365
0.000139426365
0.000139426365
0.000139426365
0.000139426365
0.000139426365
0.000139426365
0.000139426365
0.000139426365
0.000139426365
0.000139426365
0.000139426365
0.000139426365
0.000139426365
0.000139426365
0.000139426365
0.000139426365
0.000139426365
0.000139426365
0.000139426365
0.000139426365
0.000139426365
0.000139426365
0.000139426365
0.000139426365
0.000139426365
0.000139426365
0.000139426365
0.000139426365
0.000139426365
0.000139426365
0.000139426365
0.000139426365
0.000139426365
0.000139426365
0.000139426365
0.000139426365
0.000139426365
0.000139426365
0.000139426365
0.000139426365
0.000139426365
0.000139426365
0.000139426365
0.000139426365
0.000139426365
0.000139426365
0.000139426365
0.000139426365
0.000139426365
0.000139426365
0.000139426365
0.000139426365
0.000139426365
0.000139426365
0.000139426365
0.000139600666
0.00013919259
0.000137291304
0.000134114524
0.000129938045
0.000125028639
0.000119632866
0.000114133249
0.00010899424
0.000104286889
0.000100025615
9.62183009e-05
9.27879434e-05
8.93429371e-05
8.5742155e-05
8.19861578e-05
7.80777448e-05
7.4019791e-05
7.01010523e-05
6.69836158e-05
6.48088155e-05
6.37029356e-05
6.39332675e-05
6.57374343e-05
6.82775251e-05
6.95004787e-05
6.97295387e-05
6.97131826e-05
7.22466374e-05
7.22638171e-05
7.20292645e-05
7.07720678e-05
6.81593456e-05
6.6309282e-05
6.60853933e-05
6.72415919e-05
6.95015098e-05
7.27344558e-05
7.6794278e-05
8.09975594e-05
8.50463018e-05
8.89375737e-05
9.26685269e-05
9.62386259e-05
9.97935321e-05
0.000103737304
0.000108149263
0.000113021091
0.000118337689
0.000124025464
0.000129604842
0.000134680854
0.00013899886
0.000142283367
0.000144249584
0.000144672701
0.000144493274
0.000144493275
0.000144493275
0.000144493275
0.000144493275
0.000144493275
0.000144493275
0.000144493275
0.000144493275
0.000144493275
0.000144493275
0.000144493275
0.000144493275
0.000144493275
0.000144493275
0.000144493275
0.000144493275
0.000144493275
0.000144493275
0.000144493275
0.000144493275
0.000144493275
0.000144493275
0.000144493275
0.000144493275
0.000144493275
0.000144493275
0.000144493275
0.000144493275
0.000144493275
0.000144493275
0.000144493275
0.000144493275
0.000144493275
0.000144493275
0.000144493275
0.000144493275
0.000144493275
0.000144493275
0.000144493275
0.000144493275
0.000144493275
0.000144493275
0.000144493275
0.000144493275
0.000144493275
0.000144493275
0.000144493275
0.000144493275
0.000144493275
0.000144493275
0.000144493275
0.000144493275
0.000144493275
0.000144493275
0.000144493275
0.000144493275
0.000144493275
0.000144493275
0.000144493275
0.000144493275
0.000144493275
0.000144493275
0.000144493274
0.000144672701
0.000144249584
0.000142283367
0.00013899886
0.000134680854
0.000129604842
0.000124025464
0.000118337689
0.000113021091
0.000108149263
0.000103737304
9.97935321e-05
9.62386259e-05
9.26685269e-05
8.89375737e-05
8.50463018e-05
8.09975594e-05
7.6794278e-05
7.27344558e-05
6.95015098e-05
6.72415919e-05
6.60853933e-05
6.6309282e-05
6.81593456e-05
7.07720678e-05
7.20292645e-05
7.22638171e-05
7.22466374e-05
7.48713822e-05
7.48894326e-05
7.46494024e-05
7.33574957e-05
7.06710049e-05
6.877487e-05
6.85587707e-05
6.97678629e-05
7.21164231e-05
7.54692077e-05
7.96750972e-05
8.40287818e-05
8.82227818e-05
9.22541112e-05
9.61198743e-05
9.9819566e-05
0.0001035035
0.000107588505
0.000112156264
0.000117198
0.000122697896
0.000128579729
0.000134348389
0.000139596122
0.000144059985
0.00014745552
0.000149488694
0.00014992741
0.000149742764
0.000149742764
0.000149742764
0.000149742764
0.000149742764
0.000149742764
0.000149742764
0.000149742764
0.000149742764
0.000149742764
0.000149742764
0.000149742764
0.000149742764
0.000149742764
0.000149742764
0.000149742764
0.000149742764
0.000149742764
0.000149742764
0.000149742764
0.000149742764
0.000149742764
0.000149742764
0.000149742764
0.000149742764
0.000149742764
0.000149742764
0.000149742764
0.000149742764
0.000149742764
0.000149742764
0.000149742764
0.000149742764
0.000149742764
0.000149742764
0.000149742764
0.000149742764
0.000149742764
0.000149742764
0.000149742764
0.000149742764
0.000149742764
0.000149742764
0.000149742764
0.000149742764
0.000149742764
0.000149742764
0.000149742764
0.000149742764
0.000149742764
0.000149742764
0.000149742764
0.000149742764
0.000149742764
0.000149742764
0.000149742764
0.000149742764
0.000149742764
0.000149742764
0.000149742764
0.000149742764
0.000149742764
0.000149742764
0.000149742764
0.00014992741
0.000149488694
0.00014745552
0.000144059985
0.000139596122
0.000134348389
0.000128579729
0.000122697896
0.000117198
0.000112156264
0.000107588505
0.0001035035
9.9819566e-05
9.61198743e-05
9.22541112e-05
8.82227818e-05
8.40287818e-05
7.96750972e-05
7.54692077e-05
7.21164231e-05
6.97678629e-05
6.85587707e-05
6.877487e-05
7.06710049e-05
7.33574957e-05
7.46494024e-05
7.48894326e-05
7.48713822e-05
7.75906481e-05
7.7609619e-05
7.73641429e-05
7.60371013e-05
7.32757766e-05
7.13335017e-05
7.11266703e-05
7.23913801e-05
7.48322666e-05
7.83093847e-05
8.26664942e-05
8.71758249e-05
9.15201755e-05
9.56965072e-05
9.97018796e-05
0.000103535822
0.000107353422
0.000111584592
0.000116313423
0.000121530652
0.000127219708
0.000133301639
0.000139265389
0.000144690071
0.000149304214
0.000152814152
0.000154916358
0.000155371251
0.000155181295
0.000155181296
0.000155181296
0.000155181296
0.000155181296
0.000155181296
0.000155181296
0.000155181296
0.000155181296
0.000155181296
0.000155181296
0.000155181296
0.000155181296
0.000155181296
0.000155181296
0.000155181296
0.000155181296
0.000155181296
0.000155181296
0.000155181296
0.000155181296
0.000155181296
0.000155181296
0.000155181296
0.000155181296
0.000155181296
0.000155181296
0.000155181296
0.000155181296
0.000155181296
0.000155181296
0.000155181296
0.000155181296
0.000155181296
0.000155181296
0.000155181296
0.000155181296
0.000155181296
0.000155181296
0.000155181296
0.000155181296
0.000155181296
0.000155181296
0.000155181296
0.000155181296
0.000155181296
0.000155181296
0.000155181296
0.000155181296
0.000155181296
0.000155181296
0.000155181296
0.000155181296
0.000155181296
0.000155181296
0.000155181296
0.000155181296
0.000155181296
0.000155181296
0.000155181296
0.000155181296
0.000155181296
0.000155181296
0.000155181295
0.000155371251
0.000154916358
0.000152814152
0.000149304214
0.000144690071
0.000139265389
0.000133301639
0.000127219708
0.000121530652
0.000116313423
0.000111584592
0.000107353422
0.000103535822
9.97018796e-05
9.56965072e-05
9.15201755e-05
8.71758249e-05
8.26664942e-05
7.83093847e-05
7.48322666e-05
7.23913801e-05
7.11266703e-05
7.13335017e-05
7.32757766e-05
7.60371013e-05
7.73641429e-05
7.7609619e-05
7.75906481e-05
8.0407776e-05
8.04277204e-05
8.01768487e-05
7.88142946e-05
7.59771539e-05
7.39887887e-05
7.37928467e-05
7.51160566e-05
7.76531209e-05
8.125924e-05
8.57728963e-05
9.04432883e-05
9.49432519e-05
9.92696979e-05
0.000103419644
0.000107392661
0.000111348726
0.000115731156
0.000120626493
0.000126024958
0.000131909182
0.000138197397
0.000144362171
0.000149969145
0.000154738086
0.000158365871
0.000160539231
0.000161010903
0.000160815551
0.000160815552
0.000160815552
0.000160815552
0.000160815552
0.000160815552
0.000160815552
0.000160815552
0.000160815552
0.000160815552
0.000160815552
0.000160815552
0.000160815552
0.000160815552
0.000160815552
0.000160815552
0.000160815552
0.000160815552
0.000160815552
0.000160815552
0.000160815552
0.000160815552
0.000160815552
0.000160815552
0.000160815552
0.000160815552
0.000160815552
0.000160815552
0.000160815552
0.000160815552
0.000160815552
0.000160815552
0.000160815552
0.000160815552
0.000160815552
0.000160815552
0.000160815552
0.000160815552
0.000160815552
0.000160815552
0.000160815552
0.000160815552
0.000160815552
0.000160815552
0.000160815552
0.000160815552
0.000160815552
0.000160815552
0.000160815552
0.000160815552
0.000160815552
0.000160815552
0.000160815552
0.000160815552
0.000160815552
0.000160815552
0.000160815552
0.000160815552
0.000160815552
0.000160815552
0.000160815552
0.000160815552
0.000160815552
0.000160815551
0.000161010903
0.000160539231
0.000158365871
0.000154738086
0.000149969145
0.000144362171
0.000138197397
0.000131909182
0.000126024958
0.000120626493
0.000115731156
0.000111348726
0.000107392661
0.000103419644
9.92696979e-05
9.49432519e-05
9.04432883e-05
8.57728963e-05
8.125924e-05
7.76531209e-05
7.51160566e-05
7.37928467e-05
7.39887887e-05
7.59771539e-05
7.88142946e-05
8.01768487e-05
8.04277204e-05
8.0407776e-05
8.33262201e-05
8.33471946e-05
8.30909979e-05
8.16926078e-05
7.87787642e-05
7.674449e-05
7.65612142e-05
7.7945975e-05
8.05832449e-05
8.43232118e-05
8.89989208e-05
9.38359661e-05
9.84969797e-05
0.000102978825
0.000107278481
0.000111395563
0.000115495062
0.000120034014
0.000125101456
0.000130687058
0.000136772613
0.000143273436
0.000149645297
0.000155440014
0.000160368361
0.000164117511
0.000166364195
0.000166853268
0.000166652439
0.00016665244
0.00016665244
0.00016665244
0.00016665244
0.00016665244
0.00016665244
0.00016665244
0.00016665244
0.00016665244
0.00016665244
0.00016665244
0.00016665244
0.00016665244
0.00016665244
0.00016665244
0.00016665244
0.00016665244
0.00016665244
0.00016665244
0.00016665244
0.00016665244
0.00016665244
0.00016665244
0.00016665244
0.00016665244
0.00016665244
0.00016665244
0.00016665244
0.00016665244
0.00016665244
0.00016665244
0.00016665244
0.00016665244
0.00016665244
0.00016665244
0.00016665244
0.00016665244
0.00016665244
0.00016665244
0.00016665244
0.00016665244
0.00016665244
0.00016665244
0.00016665244
0.00016665244
0.00016665244
0.00016665244
0.00016665244
0.00016665244
0.00016665244
0.00016665244
0.00016665244
0.00016665244
0.00016665244
0.00016665244
0.00016665244
0.00016665244
0.00016665244
0.00016665244
0.00016665244
0.00016665244
0.00016665244
0.000166652439
0.000166853268
0.000166364195
0.000164117511
0.000160368361
0.000155440014
0.000149645297
0.000143273436
0.000136772613
0.000130687058
0.000125101456
0.000120034014
0.000115495062
0.000111395563
0.000107278481
0.000102978825
9.84969797e-05
9.38359661e-05
8.89989208e-05
8.43232118e-05
8.05832449e-05
7.7945975e-05
7.65612142e-05
7.674449e-05
7.87787642e-05
8.16926078e-05
8.30909979e-05
8.33471946e-05
8.33262201e-05
8.63495513e-05
8.63716159e-05
8.61101876e-05
8.46756991e-05
8.16843743e-05
7.96045187e-05
7.94358534e-05
8.08853957e-05
8.36270841e-05
8.75059323e-05
9.23493846e-05
9.73588572e-05
0.000102186537
0.000106829243
0.00011128392
0.000115550235
0.000119798313
0.00012449922
0.000129744532
0.000135523335
0.000141816535
0.000148536429
0.000155121565
0.000161109585
0.000166202037
0.000170076137
0.000172398361
0.000172905482
0.000172699102
0.000172699103
0.000172699103
0.000172699103
0.000172699103
0.000172699103
0.000172699103
0.000172699103
0.000172699103
0.000172699103
0.000172699103
0.000172699103
0.000172699103
0.000172699103
0.000172699103
0.000172699103
0.000172699103
0.000172699103
0.000172699103
0.000172699103
0.000172699103
0.000172699103
0.000172699103
0.000172699103
0.000172699103
0.000172699103
0.000172699103
0.000172699103
0.000172699103
0.000172699103
0.000172699103
0.000172699103
0.000172699103
0.000172699103
0.000172699103
0.000172699103
0.000172699103
0.000172699103
0.000172699103
0.000172699103
0.000172699103
0.000172699103
0.000172699103
0.000172699103
0.000172699103
0.000172699103
0.000172699103
0.000172699103
0.000172699103
0.000172699103
0.000172699103
0.000172699103
0.000172699103
0.000172699103
0.000172699103
0.000172699103
0.000172699103
0.000172699103
0.000172699103
0.000172699103
0.000172699103
0.000172699103
0.000172699103
0.000172699102
0.000172905482
0.000172398361
0.000170076137
0.000166202037
0.000161109585
0.000155121565
0.000148536429
0.000141816535
0.000135523335
0.000129744532
0.00012449922
0.000119798313
0.000115550235
0.00011128392
0.000106829243
0.000102186537
9.73588572e-05
9.23493846e-05
8.75059323e-05
8.36270841e-05
8.08853957e-05
7.94358534e-05
7.96045187e-05
8.16843743e-05
8.46756991e-05
8.61101876e-05
8.63716159e-05
8.63495513e-05
8.94814611e-05
8.95046797e-05
8.9238138e-05
8.77673574e-05
8.46978962e-05
8.25729485e-05
8.242102e-05
8.39387654e-05
8.67892799e-05
9.08122369e-05
9.58293132e-05
0.000101017174
0.000106017322
0.000110826533
0.000115441724
0.000119862621
0.000124264601
0.000129133074
0.000134562192
0.000140540421
0.000147047732
0.0001539933
0.000160798021
0.00016698501
0.000172246353
0.000176249055
0.000178649082
0.000179174923
0.000178962921
0.000178962922
0.000178962922
0.000178962922
0.000178962922
0.000178962922
0.000178962922
0.000178962922
0.000178962922
0.000178962922
0.000178962922
0.000178962922
0.000178962922
0.000178962922
0.000178962922
0.000178962922
0.000178962922
0.000178962922
0.000178962922
0.000178962922
0.000178962922
0.000178962922
0.000178962922
0.000178962922
0.000178962922
0.000178962922
0.000178962922
0.000178962922
0.000178962922
0.000178962922
0.000178962922
0.000178962922
0.000178962922
0.000178962922
0.000178962922
0.000178962922
0.000178962922
0.000178962922
0.000178962922
0.000178962922
0.000178962922
0.000178962922
0.000178962922
0.000178962922
0.000178962922
0.000178962922
0.000178962922
0.000178962922
0.000178962922
0.000178962922
0.000178962922
0.000178962922
0.000178962922
0.000178962922
0.000178962922
0.000178962922
0.000178962922
0.000178962922
0.000178962922
0.000178962922
0.000178962922
0.000178962922
0.000178962922
0.000178962921
0.000179174923
0.000178649082
0.000176249055
0.000172246353
0.00016698501
0.000160798021
0.0001539933
0.000147047732
0.000140540421
0.000134562192
0.000129133074
0.000124264601
0.000119862621
0.000115441724
0.000110826533
0.000106017322
0.000101017174
9.58293132e-05
9.08122369e-05
8.67892799e-05
8.39387654e-05
8.242102e-05
8.25729485e-05
8.46978962e-05
8.77673574e-05
8.9238138e-05
8.95046797e-05
8.94814611e-05
9.27257646e-05
9.27502053e-05
9.24786959e-05
9.09715066e-05
8.78233927e-05
8.56540212e-05
8.55211524e-05
8.71107261e-05
9.00746793e-05
9.42471747e-05
9.94439513e-05
0.000104816353
0.000109994959
0.00011497651
0.000119757896
0.000124338909
0.000128900301
0.000133942133
0.000139561168
0.000145745212
0.000152473252
0.000159651232
0.000166681967
0.000173073693
0.000178508795
0.000182643817
0.000185123956
0.000185669212
0.000185451528
0.000185451529
0.000185451529
0.000185451529
0.000185451529
0.000185451529
0.000185451529
0.000185451529
0.000185451529
0.000185451529
0.000185451529
0.000185451529
0.000185451529
0.000185451529
0.000185451529
0.000185451529
0.000185451529
0.000185451529
0.000185451529
0.000185451529
0.000185451529
0.000185451529
0.000185451529
0.000185451529
0.000185451529
0.000185451529
0.000185451529
0.000185451529
0.000185451529
0.000185451529
0.000185451529
0.000185451529
0.000185451529
0.000185451529
0.000185451529
0.000185451529
0.000185451529
0.000185451529
0.000185451529
0.000185451529
0.000185451529
0.000185451529
0.000185451529
0.000185451529
0.000185451529
0.000185451529
0.000185451529
0.000185451529
0.000185451529
0.000185451529
0.000185451529
0.000185451529
0.000185451529
0.000185451529
0.000185451529
0.000185451529
0.000185451529
0.000185451529
0.000185451529
0.000185451529
0.000185451529
0.000185451529
0.000185451529
0.000185451528
0.000185669212
0.000185123956
0.000182643817
0.000178508795
0.000173073693
0.000166681967
0.000159651232
0.000152473252
0.000145745212
0.000139561168
0.000133942133
0.000128900301
0.000124338909
0.000119757896
0.00011497651
0.000109994959
0.000104816353
9.94439513e-05
9.42471747e-05
9.00746793e-05
8.71107261e-05
8.55211524e-05
8.56540212e-05
8.78233927e-05
9.09715066e-05
9.24786959e-05
9.27502053e-05
9.27257646e-05
9.60864048e-05
9.61121402e-05
9.5835839e-05
9.42922106e-05
9.10650838e-05
8.88521545e-05
8.87408807e-05
9.04061248e-05
9.3488345e-05
9.78160183e-05
0.000103198773
0.000108762065
0.000114125315
0.000119285232
0.000124238687
0.000128985546
0.000133712051
0.00013893322
0.000144748461
0.000151144877
0.000158100415
0.000165517678
0.00017278097
0.000179383298
0.000184997109
0.000189268231
0.000191830833
0.000192396227
0.000192172809
0.00019217281
0.00019217281
0.00019217281
0.00019217281
0.00019217281
0.00019217281
0.00019217281
0.00019217281
0.00019217281
0.00019217281
0.00019217281
0.00019217281
0.00019217281
0.00019217281
0.00019217281
0.00019217281
0.00019217281
0.00019217281
0.00019217281
0.00019217281
0.00019217281
0.00019217281
0.00019217281
0.00019217281
0.00019217281
0.00019217281
0.00019217281
0.00019217281
0.00019217281
0.00019217281
0.00019217281
0.00019217281
0.00019217281
0.00019217281
0.00019217281
0.00019217281
0.00019217281
0.00019217281
0.00019217281
0.00019217281
0.00019217281
0.00019217281
0.00019217281
0.00019217281
0.00019217281
0.00019217281
0.00019217281
0.00019217281
0.00019217281
0.00019217281
0.00019217281
0.00019217281
0.00019217281
0.00019217281
0.00019217281
0.00019217281
0.00019217281
0.00019217281
0.00019217281
0.00019217281
0.00019217281
0.00019217281
0.000192172809
0.000192396227
0.000191830833
0.000189268231
0.000184997109
0.000179383298
0.00017278097
0.000165517678
0.000158100415
0.000151144877
0.000144748461
0.00013893322
0.000133712051
0.000128985546
0.000124238687
0.000119285232
0.000114125315
0.000108762065
0.000103198773
9.78160183e-05
9.3488345e-05
9.04061248e-05
8.87408807e-05
8.88521545e-05
9.10650838e-05
9.42922107e-05
9.5835839e-05
9.61121402e-05
9.60864048e-05
9.95674561e-05
9.95945633e-05
9.93136793e-05
9.77336778e-05
9.44273526e-05
9.21719492e-05
9.20850359e-05
9.38300236e-05
9.70355661e-05
0.000101524275
0.000107099494
0.000112860227
0.000118414508
0.000123759018
0.000128890614
0.000133809248
0.000138706767
0.000144113442
0.000150131357
0.000156746868
0.000163936823
0.000171600368
0.000179102872
0.00018592176
0.000191719305
0.000196130365
0.000198777825
0.000199364107
0.000199134911
0.000199134912
0.000199134912
0.000199134912
0.000199134912
0.000199134912
0.000199134912
0.000199134912
0.000199134912
0.000199134912
0.000199134912
0.000199134912
0.000199134912
0.000199134912
0.000199134912
0.000199134912
0.000199134912
0.000199134912
0.000199134912
0.000199134912
0.000199134912
0.000199134912
0.000199134912
0.000199134912
0.000199134912
0.000199134912
0.000199134912
0.000199134912
0.000199134912
0.000199134912
0.000199134912
0.000199134912
0.000199134912
0.000199134912
0.000199134912
0.000199134912
0.000199134912
0.000199134912
0.000199134912
0.000199134912
0.000199134912
0.000199134912
0.000199134912
0.000199134912
0.000199134912
0.000199134912
0.000199134912
0.000199134912
0.000199134912
0.000199134912
0.000199134912
0.000199134912
0.000199134912
0.000199134912
0.000199134912
0.000199134912
0.000199134912
0.000199134912
0.000199134912
0.000199134912
0.000199134912
0.000199134912
0.000199134912
0.000199134911
0.000199364107
0.000198777825
0.000196130365
0.000191719305
0.00018592176
0.000179102872
0.000171600368
0.000163936823
0.000156746868
0.000150131357
0.000144113442
0.000138706767
0.000133809248
0.000128890614
0.000123759018
0.000118414508
0.000112860227
0.000107099494
0.000101524275
9.70355661e-05
9.38300236e-05
9.20850359e-05
9.21719492e-05
9.44273526e-05
9.77336778e-05
9.93136793e-05
9.95945633e-05
9.95674561e-05
0.000103173128
0.000103201689
0.000102916468
0.000101300266
9.79147525e-05
9.56181984e-05
9.55586594e-05
9.73877102e-05
0.000100721869
0.000105377701
0.00011115208
0.000117117014
0.000122868918
0.000128404451
0.000133720468
0.00013881701
0.000143891649
0.000149490197
0.000155717438
0.000162558934
0.000169990372
0.000177907324
0.000185655799
0.000192697293
0.000198683667
0.000203238559
0.000205973313
0.000206581261
0.000206346255
0.000206346256
0.000206346256
0.000206346256
0.000206346256
0.000206346256
0.000206346256
0.000206346256
0.000206346256
0.000206346256
0.000206346256
0.000206346256
0.000206346256
0.000206346256
0.000206346256
0.000206346256
0.000206346256
0.000206346256
0.000206346256
0.000206346256
0.000206346256
0.000206346256
0.000206346256
0.000206346256
0.000206346256
0.000206346256
0.000206346256
0.000206346256
0.000206346256
0.000206346256
0.000206346256
0.000206346256
0.000206346256
0.000206346256
0.000206346256
0.000206346256
0.000206346256
0.000206346256
0.000206346256
0.000206346256
0.000206346256
0.000206346256
0.000206346256
0.000206346256
0.000206346256
0.000206346256
0.000206346256
0.000206346256
0.000206346256
0.000206346256
0.000206346256
0.000206346256
0.000206346256
0.000206346256
0.000206346256
0.000206346256
0.000206346256
0.000206346256
0.000206346256
0.000206346256
0.000206346256
0.000206346256
0.000206346256
0.000206346255
0.000206581261
0.000205973313
0.000203238559
0.000198683667
0.000192697293
0.000185655799
0.000177907324
0.000169990372
0.000162558934
0.000155717438
0.000149490197
0.000143891649
0.00013881701
0.000133720468
0.000128404451
0.000122868918
0.000117117014
0.00011115208
0.000105377701
0.000100721869
9.73877102e-05
9.55586594e-05
9.56181984e-05
9.79147525e-05
0.000101300266
0.000102916468
0.000103201689
0.000103173128
0.00010690777
0.000106937873
0.000106648599
0.000104996488
0.000101532014
9.91958954e-05
9.91670136e-05
0.000101084709
0.000104553032
0.000109382308
0.000115362766
0.00012153887
0.0001274952
0.000133228401
0.000138735327
0.000144016126
0.000149274202
0.00015507119
0.000161514594
0.000168589134
0.000176269266
0.000184446869
0.000192448171
0.000199718397
0.000205898762
0.000210601429
0.000213425951
0.000214056374
0.000213815538
0.000213815539
0.000213815539
0.000213815539
0.000213815539
0.000213815539
0.000213815539
0.000213815539
0.000213815539
0.000213815539
0.000213815539
0.000213815539
0.000213815539
0.000213815539
0.000213815539
0.000213815539
0.000213815539
0.000213815539
0.000213815539
0.000213815539
0.000213815539
0.000213815539
0.000213815539
0.000213815539
0.000213815539
0.000213815539
0.000213815539
0.000213815539
0.000213815539
0.000213815539
0.000213815539
0.000213815539
0.000213815539
0.000213815539
0.000213815539
0.000213815539
0.000213815539
0.000213815539
0.000213815539
0.000213815539
0.000213815539
0.000213815539
0.000213815539
0.000213815539
0.000213815539
0.000213815539
0.000213815539
0.000213815539
0.000213815539
0.000213815539
0.000213815539
0.000213815539
0.000213815539
0.000213815539
0.000213815539
0.000213815539
0.000213815539
0.000213815539
0.000213815539
0.000213815539
0.000213815539
0.000213815539
0.000213815539
0.000213815538
0.000214056374
0.000213425951
0.000210601429
0.000205898762
0.000199718397
0.000192448171
0.000184446869
0.000176269266
0.000168589134
0.000161514594
0.00015507119
0.000149274202
0.000144016126
0.000138735327
0.000133228401
0.0001274952
0.00012153887
0.000115362766
0.000109382308
0.000104553032
0.000101084709
9.91670136e-05
9.91958954e-05
0.000101532014
0.000104996488
0.000106648599
0.000106937873
0.00010690777
0.000110775873
0.000110807611
0.000110514614
0.000108827016
0.000105284051
0.000102910244
0.000102915592
0.000104926795
0.000108535092
0.000113544382
0.000119738061
0.000126132524
0.0001323003
0.000138238027
0.000143942571
0.000149414194
0.000154862243
0.000160864444
0.000167531039
0.000174845847
0.000182782028
0.000191227639
0.000199488716
0.000206993873
0.000213373446
0.000218227878
0.000221144681
0.000221798416
0.000221551745
0.000221551746
0.000221551746
0.000221551746
0.000221551746
0.000221551746
0.000221551746