/*--------------------------------*- C++ -*----------------------------------*\
| =========                 |                                                 |
| \\      /  F ield         | OpenFOAM: The Open Source CFD Toolbox           |
|  \\    /   O peration     | Version:  2112                                  |
|   \\  /    A nd           | Website:  www.openfoam.com                      |
|    \\/     M anipulation  |                                                 |
\*---------------------------------------------------------------------------*/
FoamFile
{
    version     2.0;
    format      ascii;
    arch        "LSB;label=32;scalar=64";
    class       volScalarField;
    location    "9128";
    object      V;
}
// * * * * * * * * * * * * * * * * * * * * * * * * * * * * * * * * * * * * * //

dimensions      [0 3 0 0 0 0 0];

internalField   nonuniform List<scalar> 
14751
(
3.6362005e-05
3.63613722e-05
3.63631381e-05
3.63645337e-05
3.6365602e-05
3.63664574e-05
3.63674197e-05
3.63679189e-05
3.63679272e-05
3.63679149e-05
3.63678937e-05
3.63664596e-05
3.63635064e-05
3.63609888e-05
3.63590403e-05
3.63576378e-05
3.63567666e-05
3.63559255e-05
3.63550978e-05
3.63552133e-05
3.63562647e-05
3.63573461e-05
3.63584682e-05
3.63606965e-05
3.63642139e-05
3.63672453e-05
3.63695536e-05
3.63708941e-05
3.6371303e-05
3.63717077e-05
3.63721073e-05
3.63724986e-05
3.63728757e-05
3.63732486e-05
3.63736259e-05
3.63732257e-05
3.63720439e-05
3.63708305e-05
3.63695805e-05
3.6367185e-05
3.63633534e-05
3.63599309e-05
3.63572672e-05
3.63557583e-05
3.63553494e-05
3.63549449e-05
3.63545405e-05
3.63541496e-05
3.63537724e-05
3.63533905e-05
3.63530135e-05
3.63530133e-05
3.63533905e-05
3.63537722e-05
3.63541496e-05
3.63545403e-05
3.63549447e-05
3.63553494e-05
3.63557583e-05
3.63572488e-05
3.63598714e-05
3.63632532e-05
3.63670532e-05
3.63694303e-05
3.63706668e-05
3.63718666e-05
3.63730346e-05
3.63735712e-05
3.63734801e-05
3.63733891e-05
3.63732984e-05
3.63732026e-05
3.63731077e-05
3.63730164e-05
3.63729214e-05
3.63728069e-05
3.63726852e-05
3.63725666e-05
3.63724542e-05
3.6372336e-05
3.6372224e-05
3.63721204e-05
3.63720147e-05
3.63715985e-05
3.6370856e-05
3.63700971e-05
3.63693309e-05
3.6368075e-05
3.63662994e-05
3.63639578e-05
3.63612949e-05
3.63601555e-05
3.63603363e-05
3.63605192e-05
3.63606368e-05
3.63609686e-05
3.6361472e-05
3.63621185e-05
3.63630864e-05
3.79835682e-05
3.79982061e-05
3.80680452e-05
3.81815626e-05
3.83324332e-05
3.84986327e-05
3.86739622e-05
3.88562412e-05
3.90408684e-05
3.92268695e-05
3.94132601e-05
3.95982891e-05
3.97807595e-05
3.99605817e-05
4.01366824e-05
4.03087636e-05
4.04760998e-05
4.06379939e-05
4.07943927e-05
4.0945436e-05
4.10910499e-05
4.12304731e-05
4.13633585e-05
4.14899524e-05
4.16102235e-05
4.17236677e-05
4.18303596e-05
4.19300916e-05
4.20230128e-05
4.21096971e-05
4.21903244e-05
4.2265087e-05
4.23342064e-05
4.23979014e-05
4.24563761e-05
4.25094444e-05
4.2557338e-05
4.2600685e-05
4.26397071e-05
4.26741594e-05
4.27042373e-05
4.27306593e-05
4.27535611e-05
4.27735029e-05
4.27906019e-05
4.28044265e-05
4.28150863e-05
4.28226401e-05
4.28271288e-05
4.28285982e-05
4.28270199e-05
4.28226087e-05
4.28153458e-05
4.28049542e-05
4.27913983e-05
4.27745857e-05
4.27544169e-05
4.27307837e-05
4.27035302e-05
4.26730243e-05
4.26390951e-05
4.260115e-05
4.25590173e-05
4.25119413e-05
4.24596958e-05
4.24024936e-05
4.23401034e-05
4.22719792e-05
4.21978716e-05
4.21178982e-05
4.20318557e-05
4.19395647e-05
4.18408602e-05
4.17355841e-05
4.16237176e-05
4.15052338e-05
4.13800117e-05
4.12480786e-05
4.11094308e-05
4.09644514e-05
4.08131471e-05
4.06556875e-05
4.04926675e-05
4.03243308e-05
4.01512706e-05
3.99741795e-05
3.97935403e-05
3.96100412e-05
3.94248026e-05
3.92390433e-05
3.90535441e-05
3.8870183e-05
3.8691932e-05
3.85206636e-05
3.83615624e-05
3.82193448e-05
3.81023203e-05
3.80230365e-05
3.79942688e-05
3.96717472e-05
3.96966223e-05
3.98200606e-05
4.00206168e-05
4.02874952e-05
4.05823619e-05
4.08935955e-05
4.12180211e-05
4.15476407e-05
4.18808686e-05
4.22160652e-05
4.25506169e-05
4.28823151e-05
4.32098578e-05
4.35312248e-05
4.3845665e-05
4.415192e-05
4.44490944e-05
4.47370856e-05
4.50155613e-05
4.52843498e-05
4.55425685e-05
4.57893178e-05
4.60243457e-05
4.62474595e-05
4.6458407e-05
4.66573268e-05
4.68440348e-05
4.70187435e-05
4.7181946e-05
4.73339331e-05
4.74750436e-05
4.76056423e-05
4.7726101e-05
4.78368066e-05
4.79378355e-05
4.80296063e-05
4.81128152e-05
4.8187866e-05
4.82548555e-05
4.8314228e-05
4.83664932e-05
4.84117834e-05
4.84507584e-05
4.84836621e-05
4.85103366e-05
4.85309634e-05
4.85456575e-05
4.85544948e-05
4.85575394e-05
4.85547771e-05
4.85463588e-05
4.85322244e-05
4.85121249e-05
4.84859785e-05
4.8453616e-05
4.84148649e-05
4.83695118e-05
4.83172698e-05
4.82582148e-05
4.81920264e-05
4.81179528e-05
4.80357765e-05
4.79449415e-05
4.78449581e-05
4.77356805e-05
4.76166998e-05
4.74873875e-05
4.73473179e-05
4.71963584e-05
4.7034151e-05
4.68604189e-05
4.66749126e-05
4.6477414e-05
4.62679262e-05
4.60464833e-05
4.58129334e-05
4.55674058e-05
4.53100278e-05
4.50418174e-05
4.47628246e-05
4.44734118e-05
4.41747199e-05
4.38673799e-05
4.35523112e-05
4.32305723e-05
4.29031098e-05
4.25714463e-05
4.22379179e-05
4.1904833e-05
4.15734956e-05
4.12465433e-05
4.09286341e-05
4.06233534e-05
4.03399066e-05
4.00865132e-05
3.98791803e-05
3.97398226e-05
3.96904746e-05
4.14313866e-05
4.14646645e-05
4.16292694e-05
4.18978608e-05
4.22561284e-05
4.26528701e-05
4.30715327e-05
4.35079563e-05
4.39515402e-05
4.44010727e-05
4.4854626e-05
4.5309207e-05
4.57616381e-05
4.62087902e-05
4.66479224e-05
4.70777451e-05
4.74966772e-05
4.79040307e-05
4.82996949e-05
4.86828133e-05
4.9053175e-05
4.94100067e-05
4.97516754e-05
5.00770522e-05
5.03859167e-05
5.06784943e-05
5.0954799e-05
5.12147998e-05
5.14587808e-05
5.16869251e-05
5.18995841e-05
5.20971958e-05
5.22802382e-05
5.24491794e-05
5.26045262e-05
5.27467439e-05
5.28763972e-05
5.29940828e-05
5.31003497e-05
5.31958816e-05
5.32811811e-05
5.33562406e-05
5.34213649e-05
5.34770829e-05
5.35237108e-05
5.35615409e-05
5.35908454e-05
5.36117764e-05
5.36244277e-05
5.36289052e-05
5.36251701e-05
5.36132836e-05
5.3593163e-05
5.35646179e-05
5.35275486e-05
5.34817034e-05
5.34268423e-05
5.33626824e-05
5.3288833e-05
5.32048787e-05
5.31103851e-05
5.30047051e-05
5.2887439e-05
5.27585162e-05
5.26173767e-05
5.24632864e-05
5.2295683e-05
5.21140106e-05
5.19177065e-05
5.17063269e-05
5.1479416e-05
5.12366363e-05
5.09776893e-05
5.0702336e-05
5.04106355e-05
5.01026992e-05
4.9778378e-05
4.94379319e-05
4.90817498e-05
4.87116898e-05
4.83277818e-05
4.79305351e-05
4.75214751e-05
4.71015781e-05
4.66718011e-05
4.62332903e-05
4.57873844e-05
4.53365219e-05
4.48843293e-05
4.44340405e-05
4.39874738e-05
4.35475355e-05
4.3119293e-05
4.27077393e-05
4.23252939e-05
4.19830163e-05
4.17046327e-05
4.15193011e-05
4.1454935e-05
4.32622729e-05
4.33024021e-05
4.35014086e-05
4.3825582e-05
4.4257553e-05
4.47368056e-05
4.52421335e-05
4.57684575e-05
4.630321e-05
4.68460982e-05
4.73951564e-05
4.7946584e-05
4.84963815e-05
4.90400433e-05
4.95741168e-05
5.00968352e-05
5.06065539e-05
5.11028485e-05
5.15857345e-05
5.20542233e-05
5.25081425e-05
5.29466714e-05
5.33672922e-05
5.37683593e-05
5.41495993e-05
5.45110346e-05
5.48525969e-05
5.51742146e-05
5.54762028e-05
5.57587988e-05
5.60223976e-05
5.62674883e-05
5.64946368e-05
5.67044041e-05
5.68973956e-05
5.70741427e-05
5.72353229e-05
5.73816807e-05
5.75138715e-05
5.76326179e-05
5.77385245e-05
5.78317779e-05
5.79127751e-05
5.79821254e-05
5.80402075e-05
5.80873458e-05
5.81238578e-05
5.81499322e-05
5.81657005e-05
5.8171286e-05
5.81666436e-05
5.81518232e-05
5.8126742e-05
5.80911718e-05
5.8044968e-05
5.79878515e-05
5.79195188e-05
5.78396136e-05
5.77476576e-05
5.7643197e-05
5.75257031e-05
5.73944267e-05
5.72488536e-05
5.70887031e-05
5.69133075e-05
5.67218925e-05
5.65138042e-05
5.62883522e-05
5.60448663e-05
5.5782845e-05
5.55017601e-05
5.52012482e-05
5.48809608e-05
5.45406722e-05
5.41804976e-05
5.38006202e-05
5.34009278e-05
5.2981792e-05
5.25439328e-05
5.2090236e-05
5.16206557e-05
5.11357678e-05
5.06373087e-05
5.01263837e-05
4.96036431e-05
4.90702411e-05
4.85278697e-05
4.797963e-05
4.74305809e-05
4.68849377e-05
4.63448763e-05
4.58140178e-05
4.52968821e-05
4.47990028e-05
4.43354701e-05
4.39199441e-05
4.35842097e-05
4.33631458e-05
4.32887634e-05
4.5165598e-05
4.52116592e-05
4.5441585e-05
4.58132419e-05
4.63063949e-05
4.6854496e-05
4.74317004e-05
4.80317453e-05
4.86406049e-05
4.92596014e-05
4.98869419e-05
5.0518287e-05
5.11489173e-05
5.17724389e-05
5.23847637e-05
5.29835315e-05
5.3567237e-05
5.41361211e-05
5.46904002e-05
5.52288992e-05
5.57515764e-05
5.6257851e-05
5.67441571e-05
5.72081425e-05
5.76494681e-05
5.80680538e-05
5.84637972e-05
5.88367749e-05
5.91873173e-05
5.95155087e-05
5.98217919e-05
6.01066842e-05
6.03708305e-05
6.06148595e-05
6.08394442e-05
6.10453152e-05
6.1233254e-05
6.1403974e-05
6.15582157e-05
6.16968809e-05
6.18206391e-05
6.19297212e-05
6.20245863e-05
6.21057086e-05
6.21735297e-05
6.22285922e-05
6.22712601e-05
6.23017494e-05
6.23202139e-05
6.23267864e-05
6.23214215e-05
6.23041288e-05
6.22748074e-05
6.22332506e-05
6.21792959e-05
6.2112601e-05
6.20328305e-05
6.19395764e-05
6.18322834e-05
6.17102576e-05
6.1572892e-05
6.14195649e-05
6.12496715e-05
6.10628901e-05
6.08584662e-05
6.06354544e-05
6.03931114e-05
6.01307696e-05
5.98476746e-05
5.95431729e-05
5.92166681e-05
5.88677791e-05
5.84961399e-05
5.81015211e-05
5.76840874e-05
5.72441178e-05
5.67814951e-05
5.62967105e-05
5.57909202e-05
5.52681832e-05
5.47283021e-05
5.41718343e-05
5.36005629e-05
5.30156569e-05
5.24171396e-05
5.18059322e-05
5.11840524e-05
5.05553188e-05
4.9926391e-05
4.93024037e-05
4.86857753e-05
4.80805787e-05
4.74899431e-05
4.69197663e-05
4.63874577e-05
4.59091249e-05
4.55251797e-05
4.5275258e-05
4.51941737e-05
4.71431724e-05
4.71936242e-05
4.74503946e-05
4.78637063e-05
4.84104932e-05
4.90188642e-05
4.96582514e-05
5.03210711e-05
5.09922289e-05
5.16752796e-05
5.2368797e-05
5.30678931e-05
5.37671628e-05
5.44581053e-05
5.51359882e-05
5.579798e-05
5.64429165e-05
5.70718686e-05
5.76853632e-05
5.82822858e-05
5.88627809e-05
5.94265163e-05
5.99687588e-05
6.04863764e-05
6.09790045e-05
6.14464487e-05
6.18885713e-05
6.23054229e-05
6.26973585e-05
6.30644293e-05
6.34071166e-05
6.37259808e-05
6.40217123e-05
6.42949819e-05
6.45465447e-05
6.47772238e-05
6.49878619e-05
6.51792331e-05
6.53521713e-05
6.55076317e-05
6.56463586e-05
6.57686724e-05
6.58750909e-05
6.59661065e-05
6.60422058e-05
6.61039862e-05
6.61518627e-05
6.61860835e-05
6.62068012e-05
6.62141768e-05
6.62081731e-05
6.61887747e-05
6.61558647e-05
6.6109228e-05
6.60486798e-05
6.59738539e-05
6.58843602e-05
6.57797399e-05
6.56593946e-05
6.55225493e-05
6.53685269e-05
6.51966589e-05
6.50062779e-05
6.47969714e-05
6.4567907e-05
6.43180641e-05
6.40466382e-05
6.37529108e-05
6.34360443e-05
6.30953255e-05
6.27301192e-05
6.23400249e-05
6.19246379e-05
6.14837785e-05
6.10176222e-05
6.05265161e-05
6.00103711e-05
5.94697612e-05
5.89063503e-05
5.83255567e-05
5.77269427e-05
5.71109833e-05
5.64793389e-05
5.58330995e-05
5.51713841e-05
5.44947287e-05
5.38054602e-05
5.31080736e-05
5.24109741e-05
5.17203523e-05
5.10388543e-05
5.03709466e-05
4.97175789e-05
4.90847282e-05
4.84919099e-05
4.79577179e-05
4.75319626e-05
4.72582982e-05
4.71731432e-05
4.9197212e-05
4.92530282e-05
4.95373552e-05
4.99893346e-05
5.05829611e-05
5.12445564e-05
5.19385498e-05
5.26557811e-05
5.33804448e-05
5.4118699e-05
5.48696129e-05
5.5627772e-05
5.63870836e-05
5.7136669e-05
5.7871191e-05
5.85871842e-05
5.92840119e-05
5.99638997e-05
6.06277412e-05
6.12745074e-05
6.19046444e-05
6.25181971e-05
6.31091343e-05
6.36734794e-05
6.42108256e-05
6.47207853e-05
6.52031978e-05
6.56582104e-05
6.60862098e-05
6.64871749e-05
6.68616029e-05
6.72100731e-05
6.75333405e-05
6.78321108e-05
6.81072048e-05
6.83595583e-05
6.85900803e-05
6.8799557e-05
6.89888721e-05
6.915904e-05
6.93108582e-05
6.94447979e-05
6.95614498e-05
6.96611848e-05
6.97445288e-05
6.98122078e-05
6.98646542e-05
6.99021403e-05
6.99248548e-05
6.99329549e-05
6.99263918e-05
6.99051488e-05
6.98690934e-05
6.98180066e-05
6.97516894e-05
6.96697428e-05
6.9571742e-05
6.94571895e-05
6.93254286e-05
6.91755475e-05
6.9006819e-05
6.88186885e-05
6.86104168e-05
6.83814086e-05
6.81307782e-05
6.78574661e-05
6.75605964e-05
6.72394397e-05
6.68931164e-05
6.65208208e-05
6.61218611e-05
6.5695841e-05
6.52423162e-05
6.47611475e-05
6.42525292e-05
6.37168458e-05
6.31540396e-05
6.2564769e-05
6.19512766e-05
6.13205085e-05
6.06717334e-05
6.00052548e-05
5.93224828e-05
5.86243226e-05
5.79087044e-05
5.71756371e-05
5.64277219e-05
5.5670171e-05
5.49133534e-05
5.41645058e-05
5.34264625e-05
5.27040417e-05
5.19953299e-05
5.13061768e-05
5.06580373e-05
5.00721287e-05
4.96085292e-05
4.93145174e-05
4.92274129e-05
5.13306413e-05
5.13908378e-05
5.16976919e-05
5.21850413e-05
5.28236647e-05
5.35359365e-05
5.42810495e-05
5.50480606e-05
5.58206732e-05
5.66084065e-05
5.74109641e-05
5.82224755e-05
5.90361196e-05
5.98382893e-05
6.0623015e-05
6.13863289e-05
6.21282716e-05
6.28523913e-05
6.35600692e-05
6.42505542e-05
6.49246563e-05
6.55828142e-05
6.62175061e-05
6.68238079e-05
6.74013109e-05
6.79495129e-05
6.84682362e-05
6.89575795e-05
6.94179547e-05
6.98493347e-05
7.0252251e-05
7.06272935e-05
7.09752716e-05
7.12969352e-05
7.15931594e-05
7.18649045e-05
7.21131596e-05
7.23387741e-05
7.25426882e-05
7.27259628e-05
7.28894492e-05
7.3033692e-05
7.31593126e-05
7.32667426e-05
7.33565535e-05
7.34294936e-05
7.34860166e-05
7.35264074e-05
7.35508712e-05
7.35595888e-05
7.35525143e-05
7.35296158e-05
7.34907574e-05
7.34357186e-05
7.33642564e-05
7.327595e-05
7.31703479e-05
7.30469059e-05
7.2904934e-05
7.27434861e-05
7.25617797e-05
7.23592006e-05
7.21349473e-05
7.18883468e-05
7.16184609e-05
7.13241899e-05
7.10046064e-05
7.06589104e-05
7.02861632e-05
6.98855351e-05
6.94562959e-05
6.89980598e-05
6.8510339e-05
6.79930174e-05
6.74462961e-05
6.68706215e-05
6.62659406e-05
6.56329846e-05
6.49746735e-05
6.42996407e-05
6.36068075e-05
6.28962369e-05
6.21689593e-05
6.1425589e-05
6.06625919e-05
5.98793089e-05
5.90786308e-05
5.82664739e-05
5.7455403e-05
5.66538713e-05
5.58648978e-05
5.50935295e-05
5.43342977e-05
5.35927995e-05
5.28923461e-05
5.22570058e-05
5.17581186e-05
5.14462458e-05
5.13588965e-05
5.35451894e-05
5.36119439e-05
5.39428693e-05
5.44646148e-05
5.51445357e-05
5.59040078e-05
5.66965414e-05
5.75092819e-05
5.83256819e-05
5.91587835e-05
6.00090608e-05
6.08700446e-05
6.17341217e-05
6.2584751e-05
6.34153004e-05
6.42212589e-05
6.50035014e-05
6.57671305e-05
6.6514092e-05
6.72439661e-05
6.79579909e-05
6.86571075e-05
6.93321701e-05
6.997726e-05
7.0591943e-05
7.1175531e-05
7.17278652e-05
7.22489356e-05
7.27391603e-05
7.31985877e-05
7.36277831e-05
7.40273356e-05
7.43981099e-05
7.47408803e-05
7.50565806e-05
7.53462233e-05
7.56108496e-05
7.58513662e-05
7.60687536e-05
7.62640506e-05
7.64381458e-05
7.6591742e-05
7.67255277e-05
7.68400117e-05
7.69357975e-05
7.7013584e-05
7.70738506e-05
7.71169316e-05
7.71430295e-05
7.71523118e-05
7.71447551e-05
7.71203354e-05
7.70788947e-05
7.70202e-05
7.694399e-05
7.68498161e-05
7.67371986e-05
7.66055585e-05
7.64541616e-05
7.62821016e-05
7.6088547e-05
7.58727736e-05
7.56339232e-05
7.53711753e-05
7.50835317e-05
7.47699109e-05
7.44293548e-05
7.40610167e-05
7.36638888e-05
7.32371381e-05
7.27799856e-05
7.22920188e-05
7.17727458e-05
7.12220837e-05
7.06402102e-05
7.00276232e-05
6.9384279e-05
6.87109834e-05
6.80114132e-05
6.72960966e-05
6.65635482e-05
6.58135005e-05
6.50464929e-05
6.42627666e-05
6.34570596e-05
6.26278898e-05
6.17784466e-05
6.09153352e-05
6.00535493e-05
5.92029258e-05
5.83666633e-05
5.7550008e-05
5.67433099e-05
5.59516708e-05
5.52002237e-05
5.45162155e-05
5.39833187e-05
5.36552545e-05
5.35692163e-05
5.5842289e-05
5.59140849e-05
5.62638344e-05
5.68183085e-05
5.75411844e-05
5.83488468e-05
5.91888096e-05
6.00461093e-05
6.09041097e-05
6.17802699e-05
6.26759395e-05
6.35842435e-05
6.44967148e-05
6.53934356e-05
6.62670568e-05
6.711252e-05
6.79316653e-05
6.8731456e-05
6.9514491e-05
7.02807633e-05
7.10320188e-05
7.17697717e-05
7.24830748e-05
7.31648196e-05
7.38145647e-05
7.44315371e-05
7.50155639e-05
7.55665889e-05
7.6085083e-05
7.65710626e-05
7.70251126e-05
7.74478497e-05
7.78401946e-05
7.82029436e-05
7.85370788e-05
7.88436643e-05
7.9123788e-05
7.93784159e-05
7.96085798e-05
7.98153481e-05
7.99996546e-05
8.01622704e-05
8.03039174e-05
8.04251486e-05
8.05265869e-05
8.06089689e-05
8.06728024e-05
8.0718426e-05
8.07460614e-05
8.07558886e-05
8.07478843e-05
8.07220213e-05
8.06781323e-05
8.06159733e-05
8.05352612e-05
8.04355327e-05
8.03162776e-05
8.01768731e-05
8.00165637e-05
7.98343887e-05
7.96294696e-05
7.94010522e-05
7.91482154e-05
7.88700837e-05
7.8565615e-05
7.82336811e-05
7.78732675e-05
7.74834764e-05
7.70632808e-05
7.6611799e-05
7.61282053e-05
7.56121155e-05
7.50629691e-05
7.44807264e-05
7.38655698e-05
7.32180125e-05
7.2538031e-05
7.182651e-05
7.10879578e-05
7.03349936e-05
6.95656887e-05
6.87793783e-05
6.79760095e-05
6.71553421e-05
6.63101283e-05
6.54379091e-05
6.45421677e-05
6.36303154e-05
6.27200457e-05
6.18226371e-05
6.09415064e-05
6.00819373e-05
5.92294202e-05
5.83885399e-05
5.75862276e-05
5.68532373e-05
5.62867452e-05
5.59436025e-05
5.58601541e-05
5.82245767e-05
5.83033771e-05
5.86718471e-05
5.92585788e-05
6.00233861e-05
6.08784352e-05
6.17647131e-05
6.26651492e-05
6.35631865e-05
6.44809289e-05
6.54207226e-05
6.63751743e-05
6.7334854e-05
6.82762187e-05
6.91911227e-05
7.00739554e-05
7.09276577e-05
7.17612943e-05
7.25782144e-05
7.33788611e-05
7.41655785e-05
7.49405477e-05
7.56908362e-05
7.64080819e-05
7.70918169e-05
7.77411321e-05
7.83558846e-05
7.89359337e-05
7.94817628e-05
7.99934281e-05
8.04715417e-05
8.09167235e-05
8.13299235e-05
8.17119775e-05
8.20639471e-05
8.23869517e-05
8.26821214e-05
8.29504502e-05
8.31930022e-05
8.34108699e-05
8.36050257e-05
8.37763205e-05
8.39255229e-05
8.40532538e-05
8.41601743e-05
8.42470258e-05
8.43143128e-05
8.43624019e-05
8.43915412e-05
8.44018987e-05
8.43934755e-05
8.43662168e-05
8.43199473e-05
8.42544381e-05
8.41693642e-05
8.4064247e-05
8.39385476e-05
8.3791616e-05
8.36226629e-05
8.34307172e-05
8.32148606e-05
8.29742509e-05
8.27079337e-05
8.24149235e-05
8.20941224e-05
8.17444126e-05
8.13647432e-05
8.0954182e-05
8.05116545e-05
8.00362371e-05
7.95270638e-05
7.89837401e-05
7.840568e-05
7.77928867e-05
7.71454982e-05
7.64640787e-05
7.57486266e-05
7.50000815e-05
7.42238929e-05
7.34349874e-05
7.26309408e-05
7.18106207e-05
7.09732784e-05
7.01180962e-05
6.92355808e-05
6.83221517e-05
6.73815712e-05
6.6422079e-05
6.54643629e-05
6.45213186e-05
6.35965949e-05
6.26954182e-05
6.17977944e-05
6.09075943e-05
6.00535975e-05
5.92705067e-05
5.86702215e-05
5.83128013e-05
5.82332326e-05
6.06925649e-05
6.07770221e-05
6.1159462e-05
6.17777104e-05
6.25875791e-05
6.34926454e-05
6.44269532e-05
6.53711016e-05
6.63087201e-05
6.72675164e-05
6.82509553e-05
6.92512365e-05
7.02578703e-05
7.12432951e-05
7.21984835e-05
7.31172455e-05
7.40037621e-05
7.48695477e-05
7.57187733e-05
7.65524746e-05
7.73736687e-05
7.8185212e-05
7.89720089e-05
7.97242434e-05
8.04414253e-05
8.1122589e-05
8.17675802e-05
8.23762068e-05
8.29489934e-05
8.34859792e-05
8.39878082e-05
8.44550961e-05
8.48888644e-05
8.5289978e-05
8.56595226e-05
8.59986644e-05
8.63085978e-05
8.65903653e-05
8.68450718e-05
8.7073871e-05
8.72777668e-05
8.74576516e-05
8.76143392e-05
8.77484929e-05
8.78608078e-05
8.79520318e-05
8.80227018e-05
8.80732066e-05
8.8103799e-05
8.81146671e-05
8.81058091e-05
8.8077178e-05
8.80285876e-05
8.79597804e-05
8.78704246e-05
8.77600248e-05
8.7628012e-05
8.74736805e-05
8.72962256e-05
8.70946425e-05
8.6867961e-05
8.66153125e-05
8.63356618e-05
8.60279937e-05
8.56911782e-05
8.53240155e-05
8.49254177e-05
8.44944194e-05
8.40298927e-05
8.3530884e-05
8.2996505e-05
8.24263602e-05
8.18198099e-05
8.11768969e-05
8.04977389e-05
7.97829265e-05
7.90324841e-05
7.82474239e-05
7.74342414e-05
7.66103793e-05
7.57728822e-05
7.49200629e-05
7.40503907e-05
7.3162369e-05
7.22439577e-05
7.12902988e-05
7.03054761e-05
6.92986213e-05
6.82937564e-05
6.73055062e-05
6.63377621e-05
6.53955885e-05
6.44528408e-05
6.35125454e-05
6.26053461e-05
6.17703608e-05
6.11355614e-05
6.07643574e-05
6.068992e-05
6.32461292e-05
6.33350068e-05
6.37297537e-05
6.43797706e-05
6.52369211e-05
6.61939333e-05
6.71773881e-05
6.8165881e-05
6.91434015e-05
7.01435588e-05
7.11710635e-05
7.22176256e-05
7.32715617e-05
7.43010701e-05
7.52961403e-05
7.62500105e-05
7.71682383e-05
7.8065061e-05
7.89456017e-05
7.98115251e-05
8.06666032e-05
8.1514507e-05
8.23377273e-05
8.31249178e-05
8.3875565e-05
8.45885634e-05
8.52638003e-05
8.59009981e-05
8.65006905e-05
8.70629479e-05
8.75884461e-05
8.80778097e-05
8.85321024e-05
8.89522189e-05
8.9339313e-05
8.96946005e-05
9.00193162e-05
9.03145393e-05
9.05814289e-05
9.08211287e-05
9.10346896e-05
9.12230981e-05
9.13872123e-05
9.15277594e-05
9.16454567e-05
9.17410629e-05
9.18151266e-05
9.18680585e-05
9.19001271e-05
9.19115168e-05
9.19022405e-05
9.18722277e-05
9.18212972e-05
9.17492036e-05
9.16555657e-05
9.15398689e-05
9.14015224e-05
9.12397995e-05
9.1053852e-05
9.08426636e-05
9.06052342e-05
9.03406055e-05
9.00477004e-05
8.97254063e-05
8.93725389e-05
8.89879088e-05
8.85703896e-05
8.81189627e-05
8.7632463e-05
8.71099088e-05
8.65503539e-05
8.59534111e-05
8.5318404e-05
8.46454139e-05
8.39345352e-05
8.31863835e-05
8.24010047e-05
8.15794697e-05
8.07294416e-05
7.98711393e-05
7.90010167e-05
7.81167536e-05
7.72159505e-05
7.6296319e-05
7.53429936e-05
7.43496569e-05
7.33206797e-05
7.22661829e-05
7.12138576e-05
7.0180208e-05
6.91694469e-05
6.81863391e-05
6.71978913e-05
6.62061337e-05
6.52436528e-05
6.43545162e-05
6.36841753e-05
6.32996229e-05
6.32315976e-05
6.58853217e-05
6.59761398e-05
6.63814466e-05
6.70642743e-05
6.797271e-05
6.8985262e-05
7.0020565e-05
7.10548935e-05
7.20727129e-05
7.31145839e-05
7.41866295e-05
7.52801377e-05
7.63821068e-05
7.74560778e-05
7.84909341e-05
7.94793514e-05
8.04283853e-05
8.1355361e-05
8.22664605e-05
8.31641075e-05
8.40529113e-05
8.49373596e-05
8.5797345e-05
8.66197862e-05
8.74041335e-05
8.81492256e-05
8.88549306e-05
8.95209177e-05
9.01477576e-05
9.07355106e-05
9.12848897e-05
9.17965288e-05
9.22715329e-05
9.27108206e-05
9.31156032e-05
9.34871535e-05
9.38267525e-05
9.41355257e-05
9.44146641e-05
9.46653697e-05
9.48887307e-05
9.50857766e-05
9.52574257e-05
9.54044349e-05
9.55275603e-05
9.56275817e-05
9.57050524e-05
9.57604194e-05
9.57939552e-05
9.58058522e-05
9.57961398e-05
9.57647512e-05
9.5711482e-05
9.56360668e-05
9.55381177e-05
9.54170979e-05
9.52723847e-05
9.51032133e-05
9.49087082e-05
9.46878131e-05
9.44394911e-05
9.41627429e-05
9.38564252e-05
9.35193713e-05
9.31503601e-05
9.27481543e-05
9.23115639e-05
9.18395398e-05
9.13308777e-05
9.078456e-05
9.01996195e-05
8.95756524e-05
8.89119493e-05
8.82086256e-05
8.74657399e-05
8.66839343e-05
8.58632887e-05
8.5004962e-05
8.41178661e-05
8.32252653e-05
8.23230015e-05
8.14080046e-05
8.04768984e-05
7.95265148e-05
7.85388396e-05
7.75059176e-05
7.64324541e-05
7.53295952e-05
7.42290927e-05
7.31495241e-05
7.20954138e-05
7.10710976e-05
7.00360079e-05
6.89909983e-05
6.79706963e-05
6.70246872e-05
6.63174296e-05
6.59197413e-05
6.58594336e-05
6.86112265e-05
6.87003803e-05
6.91123039e-05
6.98283046e-05
7.07928862e-05
7.18651304e-05
7.29551835e-05
7.40374087e-05
7.50968848e-05
7.61817169e-05
7.72995914e-05
7.84413653e-05
7.95925813e-05
8.07118268e-05
8.17867488e-05
8.28094848e-05
8.37887428e-05
8.47453045e-05
8.56865197e-05
8.66156204e-05
8.7538161e-05
8.84595649e-05
8.93568474e-05
9.02150958e-05
9.10337136e-05
9.18114185e-05
9.25481011e-05
9.32433482e-05
9.38977477e-05
9.45114022e-05
9.50850318e-05
9.56192786e-05
9.61153023e-05
9.6574064e-05
9.69968238e-05
9.73849017e-05
9.77396369e-05
9.80621931e-05
9.83537969e-05
9.86156675e-05
9.88489414e-05
9.90547256e-05
9.92339832e-05
9.93875422e-05
9.95161833e-05
9.96206871e-05
9.97016319e-05
9.9759472e-05
9.97945086e-05
9.98069351e-05
9.97967889e-05
9.97639901e-05
9.97083295e-05
9.96295507e-05
9.95272182e-05
9.94007885e-05
9.9249604e-05
9.90728553e-05
9.88696515e-05
9.86389296e-05
9.83795868e-05
9.80905613e-05
9.77706617e-05
9.74186327e-05
9.70331946e-05
9.66130934e-05
9.61571197e-05
9.56641722e-05
9.51329977e-05
9.45625501e-05
9.39518233e-05
9.33004056e-05
9.26075624e-05
9.18734337e-05
9.10980417e-05
9.02820662e-05
8.94256162e-05
8.85299275e-05
8.76052972e-05
8.66783169e-05
8.57441663e-05
8.47989277e-05
8.38381838e-05
8.28577365e-05
8.18361034e-05
8.07635155e-05
7.96449669e-05
7.84927161e-05
7.73430025e-05
7.6216646e-05
7.51185336e-05
7.40524045e-05
7.2969381e-05
7.18689672e-05
7.07879164e-05
6.9781982e-05
6.9036243e-05
6.86256887e-05
6.85745156e-05
7.14209868e-05
7.15043551e-05
7.19252487e-05
7.26776226e-05
7.37028277e-05
7.48389143e-05
7.59869857e-05
7.71190833e-05
7.82210632e-05
7.93496562e-05
8.05143327e-05
8.17055857e-05
8.29073372e-05
8.40727331e-05
8.51880497e-05
8.62449217e-05
8.72538286e-05
8.82393968e-05
8.92102994e-05
9.01707035e-05
9.11272177e-05
9.20862282e-05
9.30216118e-05
9.39163908e-05
9.47699374e-05
9.55809013e-05
9.63491452e-05
9.70742334e-05
9.77567771e-05
9.83968587e-05
9.8995237e-05
9.95525638e-05
0.000100070055
0.000100548699
0.000100989801
0.000101394733
0.000101764872
0.000102101448
0.000102405739
0.000102679018
0.000102922448
0.00010313719
0.000103324252
0.000103484511
0.000103618766
0.000103727837
0.000103812313
0.000103872668
0.000103909226
0.00010392218
0.00010391158
0.00010387735
0.000103819267
0.000103737053
0.000103630264
0.000103498324
0.000103340543
0.000103156088
0.000102944028
0.000102703247
0.00010243262
0.000102131026
0.00010179722
0.000101429891
0.000101027723
0.000100589412
0.000100113685
9.95993961e-05
9.90452598e-05
9.84501926e-05
9.7813146e-05
9.71337184e-05
9.6411126e-05
9.56455394e-05
9.48369663e-05
9.3986102e-05
9.30930949e-05
9.21592724e-05
9.11964492e-05
9.0234846e-05
8.92689122e-05
8.82937873e-05
8.73039206e-05
8.62939537e-05
8.52385815e-05
8.41259855e-05
8.2961488e-05
8.17585799e-05
8.05584026e-05
7.93842049e-05
7.82412865e-05
7.71326167e-05
7.60001841e-05
7.4841925e-05
7.36968706e-05
7.26276168e-05
7.18416099e-05
7.1418366e-05
7.13777519e-05
7.43157875e-05
7.43867007e-05
7.48130805e-05
7.56033975e-05
7.66961904e-05
7.79020277e-05
7.91124086e-05
8.02974401e-05
8.14438989e-05
8.26180441e-05
8.38313065e-05
8.50738459e-05
8.63278173e-05
8.75405905e-05
8.86969152e-05
8.97879129e-05
9.08260199e-05
9.18401529e-05
9.28404336e-05
9.3832104e-05
9.48229317e-05
9.58203139e-05
9.67947139e-05
9.7726927e-05
9.86162566e-05
9.94612811e-05
0.000100261871
0.000101017531
0.000101728876
0.000102396016
0.00010301973
0.000103600692
0.000104140146
0.000104639129
0.000105099005
0.000105521171
0.000105907051
0.000106257947
0.000106575178
0.000106860082
0.000107113877
0.000107337757
0.000107532781
0.000107699873
0.000107839869
0.000107953608
0.000108041686
0.000108104618
0.000108142729
0.000108156224
0.000108145164
0.000108109462
0.0001080489
0.000107963182
0.000107851833
0.000107714261
0.000107549737
0.000107357384
0.000107136254
0.000106885212
0.000106603072
0.000106288646
0.000105940642
0.000105557705
0.000105138459
0.000104681542
0.000104185627
0.00010364951
0.000103071863
0.000102451584
0.00010178761
0.000101079507
0.00010032646
9.95286814e-05
9.8686143e-05
9.77995772e-05
9.68691707e-05
9.58963267e-05
9.48945098e-05
9.38979266e-05
9.29002436e-05
9.18955352e-05
9.08770229e-05
8.98380213e-05
8.87490446e-05
8.75960357e-05
8.63846216e-05
8.51295955e-05
8.38775052e-05
8.26542259e-05
8.14654925e-05
8.03133319e-05
7.91297604e-05
7.79109422e-05
7.66983211e-05
7.55620788e-05
7.47338741e-05
7.42981627e-05
7.42697507e-05
7.72940599e-05
7.73479475e-05
7.77846504e-05
7.86172872e-05
7.9782031e-05
8.10618125e-05
8.23378781e-05
8.35779845e-05
8.47699827e-05
8.59907261e-05
8.72538733e-05
8.8549242e-05
8.98570372e-05
9.11183155e-05
9.23161603e-05
9.34412254e-05
9.45080504e-05
9.55502856e-05
9.65796542e-05
9.76025603e-05
9.86280515e-05
9.96646126e-05
0.000100678995
0.000101649582
0.000102575591
0.000103455544
0.000104289291
0.000105076284
0.000105817167
0.000106512051
0.000107161748
0.000107766942
0.000108328923
0.000108848768
0.000109327887
0.000109767725
0.000110169767
0.000110535373
0.000110865912
0.000111162769
0.000111427202
0.000111660471
0.000111863674
0.000112037779
0.000112183664
0.000112302186
0.000112393962
0.000112459533
0.000112499235
0.000112513277
0.000112501749
0.000112464552
0.00011240145
0.00011231214
0.000112196111
0.000112052752
0.000111881314
0.000111680886
0.000111450471
0.000111188887
0.000110894912
0.000110567324
0.000110204743
0.000109805769
0.000109368976
0.000108892947
0.000108376318
0.000107817805
0.000107216037
0.000106569911
0.000105878308
0.000105140789
0.000104356525
0.000103525715
0.000102648333
0.000101725138
0.000100756338
9.97434618e-05
9.87017808e-05
9.76698023e-05
9.66403637e-05
9.56063385e-05
9.45596392e-05
9.34921233e-05
9.23696968e-05
9.11758239e-05
8.99164239e-05
8.86076907e-05
8.73021108e-05
8.60284179e-05
8.47928028e-05
8.35961545e-05
8.23596088e-05
8.10773046e-05
7.97932802e-05
7.85860679e-05
7.77135549e-05
7.72655786e-05
7.72510314e-05
8.035732e-05
8.03874183e-05
8.08326605e-05
8.17101105e-05
8.29538676e-05
8.43137765e-05
8.56601708e-05
8.69585718e-05
8.81980625e-05
8.94671842e-05
9.07820625e-05
9.21322206e-05
9.34957259e-05
9.48068752e-05
9.60469033e-05
9.72060344e-05
9.83011e-05
9.93709425e-05
0.000100429071
0.000101483196
0.000102543749
0.000103620415
0.00010467588
0.00010568587
0.000106649564
0.000107565405
0.000108433219
0.000109252408
0.00011002362
0.00011074699
0.00011142335
0.000112053404
0.000112638501
0.000113179757
0.00011367863
0.0001141366
0.000114555203
0.000114935867
0.000115280019
0.000115589106
0.00011586443
0.00011610729
0.000116318852
0.000116500146
0.000116652072
0.000116775498
0.000116871074
0.000116939351
0.000116980686
0.000116995307
0.000116983289
0.000116944542
0.000116878832
0.000116785834
0.000116665017
0.000116515738
0.00011633721
0.000116128483
0.000115888538
0.000115616163
0.000115310081
0.000114969002
0.000114591496
0.000114176094
0.000113721329
0.000113225719
0.00011268784
0.000112106356
0.000111479853
0.000110807185
0.000110087222
0.000109319507
0.000108503174