/*--------------------------------*- C++ -*----------------------------------*\
| =========                 |                                                 |
| \\      /  F ield         | OpenFOAM: The Open Source CFD Toolbox           |
|  \\    /   O peration     | Version:  2112                                  |
|   \\  /    A nd           | Website:  www.openfoam.com                      |
|    \\/     M anipulation  |                                                 |
\*---------------------------------------------------------------------------*/
FoamFile
{
    version     2.0;
    format      ascii;
    arch        "LSB;label=32;scalar=64";
    class       volVectorField;
    location    "1547";
    object      wallShearStress_KOSST;
}
// * * * * * * * * * * * * * * * * * * * * * * * * * * * * * * * * * * * * * //

dimensions      [0 2 -2 0 0 0 0];

internalField   uniform (0 0 0);

boundaryField
{
    bottomWall
    {
        type            calculated;
        value           nonuniform List<vector> 
120
(
(-0.00349590499 6.77539602e-06 7.19520615e-25)
(-0.00387950239 9.46104466e-05 2.92319322e-21)
(-0.00250877475 0.000276842984 3.52648305e-38)
(0.000267636861 -5.08148031e-05 6.7229137e-20)
(0.00171232792 -0.000743475224 7.32743879e-24)
(0.00164243351 -0.000966987286 1.88640953e-22)
(0.00116594928 -0.000815923383 2.34827071e-19)
(0.000924388426 -0.000709685738 -2.47233991e-19)
(0.000728412597 -0.000588807263 7.19426042e-17)
(0.000586071452 -0.000480416255 7.38573512e-17)
(0.000468686277 -0.000380839438 -6.7151305e-23)
(0.000398046376 -0.000318551615 1.3197028e-22)
(0.000352960898 -0.000279479292 -1.35362605e-22)
(0.000332172988 -0.000261282649 2.78469227e-19)
(0.00033291074 -0.000260518344 2.81452545e-19)
(0.000350152757 -0.000272591415 2.78280621e-22)
(0.000373895196 -0.000288337963 2.85615216e-19)
(0.000395885704 -0.000298070496 -5.77350024e-19)
(0.00041251471 -0.000297762151 2.91017718e-19)
(0.000417548062 -0.000283184186 2.95625423e-19)
(0.000406692604 -0.000253035163 -2.98541079e-19)
(0.00038383268 -0.000212580469 3.01187134e-19)
(0.000356679734 -0.000170482449 4.63122536e-24)
(0.000326269874 -0.000130040658 3.91017271e-24)
(0.000295866354 -9.36059757e-05 -1.53615694e-19)
(0.000278534451 -6.38502375e-05 0)
(0.000258004848 -3.59516279e-05 2.23954992e-17)
(0.000322886553 -1.99967093e-05 2.27884993e-17)
(0.000533932875 -1.23480689e-05 -7.29605741e-26)
(0.000760322153 -1.24208146e-05 -2.17627369e-33)
(0.000966749655 -1.27424365e-05 0)
(0.00116545298 -1.26804219e-05 2.59921911e-17)
(0.00134440747 -1.23881984e-05 2.66596193e-17)
(0.00150482718 -1.19476799e-05 0)
(0.00164611425 -1.14577401e-05 -6.67344434e-54)
(0.00177011705 -1.09507602e-05 -4.52524591e-52)
(0.00187844206 -1.04512224e-05 -0)
(0.00197292319 -9.96117015e-06 3.45618865e-22)
(0.00205510251 -9.47947871e-06 -2.90360882e-17)
(0.00212631905 -8.9997058e-06 -3.02341735e-17)
(0.0021876382 -8.51568413e-06 3.66738071e-22)
(0.00223991627 -8.02196009e-06 3.91000392e-22)
(0.00228383828 -7.51542056e-06 -3.90880119e-22)
(0.00231997144 -6.99452791e-06 4.17486869e-22)
(0.00234878887 -6.45847908e-06 -4.17405443e-22)
(0.00237069517 -5.90783473e-06 -0)
(0.00238605082 -5.34420756e-06 3.91149624e-17)
(0.00239518983 -4.76915216e-06 4.06769245e-17)
(0.00239842941 -4.1847143e-06 4.83872543e-22)
(0.00239607735 -3.59359465e-06 -2.45828649e-22)
(0.00238843279 -2.99878918e-06 2.61782966e-22)
(0.00237579066 -2.40302635e-06 -5.31726785e-22)
(0.00235844254 -1.80900742e-06 4.55701823e-17)
(0.002336679 -1.21945242e-06 4.710744e-17)
(0.00231079088 -6.37016898e-07 1.43246054e-22)
(0.00228106942 -6.42002256e-08 -2.86314866e-41)
(0.0022478051 4.96702267e-07 -8.9463171e-33)
(0.00221128724 1.04356376e-06 7.99842732e-23)
(0.00217180248 1.57454387e-06 -1.21047381e-22)
(0.00212963337 2.08802284e-06 4.10526513e-23)
(0.00208505747 2.58260823e-06 0)
(0.00203834581 3.05720903e-06 -8.83167682e-23)
(0.00198976158 3.51092068e-06 8.83490985e-23)
(0.00193955919 3.94314068e-06 -1.06416109e-32)
(0.00188798247 4.35346739e-06 -0)
(0.00183526399 4.7417608e-06 1.92842277e-22)
(0.00178162319 5.10808543e-06 -1.92921192e-22)
(0.00172726613 5.45265929e-06 0)
(0.00167238648 5.77568544e-06 0)
(0.0016171686 6.07727288e-06 0)
(0.0015617936 6.35719435e-06 0)
(0.00150644379 6.61533046e-06 0)
(0.00145129755 6.85205916e-06 -7.2740284e-17)
(0.00139652381 7.06810139e-06 -1.4742866e-16)
(0.0013422781 7.26451838e-06 -7.46235912e-17)
(0.00128869953 7.44248726e-06 1.82582308e-21)
(0.00123591222 7.60305583e-06 -9.19991327e-22)
(0.0011840291 7.74702036e-06 9.46443009e-22)
(0.0011331578 7.87467208e-06 -9.46818711e-22)
(0.00108341518 7.98548574e-06 -8.08676626e-17)
(0.00103492961 8.07911852e-06 -8.11220257e-17)
(0.000987854081 8.15428319e-06 9.85213331e-22)
(0.00094235013 8.21097991e-06 -1.0092312e-21)
(0.000898639146 8.24559332e-06 2.03063699e-21)
(0.000856926902 8.25989369e-06 -1.02139482e-21)
(0.000817600374 8.24203636e-06 2.08796818e-21)
(0.000780922676 8.20205487e-06 -4.19875135e-21)
(0.000747690579 8.10454344e-06 2.11074258e-21)
(0.000718154944 7.99917985e-06 2.1531393e-21)
(0.000693579112 7.78996839e-06 -4.32750298e-21)
(0.000674795195 7.81138777e-06 2.17427436e-21)
(0.000654849868 7.89579034e-06 2.69098209e-25)
(0.000640678849 2.83832966e-05 -7.34683969e-40)
(0.000631515918 8.02640419e-05 -2.25420726e-21)
(0.000627851646 0.000130761987 5.83948145e-19)
(0.000619411704 0.000178337834 2.10349599e-23)
(0.000591656394 0.000214960488 1.17656564e-18)
(0.000542408549 0.000235361598 1.19588802e-18)
(0.000463677725 0.000230644154 -1.20650857e-18)
(0.000342136514 0.000186976745 1.21988955e-18)
(0.000166008892 9.06212732e-05 -1.23302133e-18)
(-7.30368474e-05 -6.43736532e-05 -1.24387788e-18)
(-0.00037711308 -0.000277954589 -1.26389153e-34)
(-0.000748281694 -0.000546220076 1.50463277e-36)
(-0.0011599385 -0.000846221648 1.2532608e-18)
(-0.00158697256 -0.00116361006 1.24730703e-18)
(-0.00204679347 -0.00151585892 1.23640166e-18)
(-0.00256144024 -0.00192407036 1.21926789e-18)
(-0.00317509377 -0.00242517926 1.19490494e-18)
(-0.00395451411 -0.00307598817 -1.15849807e-18)
(-0.00509771082 -0.00399569543 -1.10408939e-18)
(-0.0067264076 -0.00516935147 1.0188485e-18)
(-0.00887195122 -0.00647505109 -8.90063242e-19)
(-0.0117470188 -0.00780203832 -7.0619522e-19)
(-0.0152862384 -0.00866893064 4.47212663e-19)
(-0.0187178003 -0.00807538879 0)
(-0.0178056341 -0.00481452522 1.02132138e-19)
(-0.0122298239 -0.00166110125 2.3509887e-38)
(-0.00641432468 -0.000284901956 -1.23743651e-20)
(-0.00358854397 -2.67252329e-05 0)
)
;
    }
    topWall
    {
        type            calculated;
        value           nonuniform List<vector> 
120
(
(-0.00653156889 1.42389112e-07 0)
(-0.00652698807 3.57681002e-07 0)
(-0.00651534976 5.59442117e-07 0)
(-0.00649711148 7.45841095e-07 0)
(-0.00647277592 9.15632159e-07 0)
(-0.0064428976 1.06736341e-06 0)
(-0.00640806065 1.20121668e-06 0)
(-0.00636883515 1.31777154e-06 0)
(-0.00632577861 1.4174913e-06 0)
(-0.00627943236 1.5014471e-06 0)
(-0.00623029236 1.57092494e-06 0)
(-0.00617883899 1.62588272e-06 0)
(-0.00612554471 1.66821605e-06 0)
(-0.00607078072 1.70151678e-06 0)
(-0.00601483264 1.72680926e-06 0)
(-0.00595796954 1.74474357e-06 0)
(-0.00590042754 1.75670358e-06 0)
(-0.0058423971 1.76386412e-06 0)
(-0.00578403488 1.76715201e-06 0)
(-0.00572546609 1.76744454e-06 0)
(-0.0056667917 1.76529763e-06 0)
(-0.00560809339 1.76141358e-06 0)
(-0.00554942595 1.75655215e-06 0)
(-0.00549082365 1.75108547e-06 0)
(-0.00543230999 1.74520023e-06 0)
(-0.00537390601 1.73888224e-06 0)
(-0.00531562945 1.73235315e-06 0)
(-0.00525748959 1.72578869e-06 0)
(-0.00519949133 1.719141e-06 0)
(-0.00514164536 1.71203865e-06 0)
(-0.00508397644 1.704195e-06 0)
(-0.00502651003 1.69575342e-06 0)
(-0.00496927074 1.68649195e-06 0)
(-0.00491229143 1.67613246e-06 0)
(-0.00485561707 1.6642318e-06 0)
(-0.00479930488 1.65063583e-06 0)
(-0.00474341259 1.63536666e-06 0)
(-0.00468799969 1.61824135e-06 0)
(-0.00463313372 1.59895173e-06 0)
(-0.00457889385 1.57722564e-06 0)
(-0.00452536388 1.55309647e-06 0)
(-0.00447262518 1.52660229e-06 0)
(-0.00442076016 1.49764479e-06 0)
(-0.00436985493 1.46609261e-06 0)
(-0.00432000207 1.43177756e-06 0)
(-0.0042712955 1.39484325e-06 0)
(-0.00422382396 1.35548666e-06 0)
(-0.00417766602 1.31378504e-06 0)
(-0.00413291408 1.26891025e-06 0)
(-0.00408968502 1.22076094e-06 0)
(-0.00404805979 1.17121854e-06 0)
(-0.00400806714 1.12105005e-06 0)
(-0.00396974833 1.0692304e-06 0)
(-0.00393318039 1.01504365e-06 0)
(-0.00389845215 9.58280629e-07 0)
(-0.00386565495 8.98885459e-07 0)
(-0.00383487937 8.37016783e-07 0)
(-0.00380620598 7.73033073e-07 0)
(-0.00377970599 7.07061646e-07 0)
(-0.00375544834 6.39181445e-07 0)
(-0.00373349837 5.69507229e-07 0)
(-0.003713918 4.98067711e-07 0)
(-0.0036967704 4.24826778e-07 0)
(-0.0036821168 3.49963832e-07 0)
(-0.00367001159 2.73610341e-07 0)
(-0.00366050674 1.95788814e-07 0)
(-0.00365365341 1.16525828e-07 0)
(-0.00364950174 3.58509278e-08 0)
(-0.00364810029 -4.62074394e-08 0)
(-0.00364949763 -1.2959006e-07 0)
(-0.00365373476 -2.14486949e-07 0)
(-0.00366088199 -3.01839197e-07 0)
(-0.00367101171 -3.90499147e-07 0)
(-0.003684134 -4.78875213e-07 0)
(-0.00370024828 -5.67783157e-07 0)
(-0.00371939207 -6.58046097e-07 0)
(-0.00374162124 -7.50067587e-07 0)
(-0.00376699801 -8.43932509e-07 0)
(-0.00379558312 -9.39546451e-07 0)
(-0.00382743281 -1.03677325e-06 0)
(-0.00386259852 -1.13546776e-06 0)
(-0.00390112677 -1.23549401e-06 0)
(-0.00394306 -1.33672921e-06 0)
(-0.00398843607 -1.43898229e-06 0)
(-0.00403728449 -1.54195756e-06 0)
(-0.00408962541 -1.64539979e-06 0)
(-0.0041454702 -1.74900219e-06 0)
(-0.0042048193 -1.85240347e-06 0)
(-0.00426766015 -1.95515735e-06 0)
(-0.00433396471 -2.05675891e-06 0)
(-0.00440368697 -2.15659378e-06 0)
(-0.00447675979 -2.25397435e-06 0)
(-0.0045530919 -2.34808655e-06 0)
(-0.00463256432 -2.43803278e-06 0)
(-0.00471502681 -2.52277158e-06 0)
(-0.00480029411 -2.60120837e-06 0)
(-0.00488814457 -2.67213907e-06 0)
(-0.00497831421 -2.73412295e-06 0)
(-0.00507048889 -2.78563498e-06 0)
(-0.00516430911 -2.82539097e-06 0)
(-0.00525937304 -2.85195723e-06 0)
(-0.00535522768 -2.86369621e-06 0)
(-0.00545136699 -2.85907611e-06 0)
(-0.00554723654 -2.83667746e-06 0)
(-0.00564223694 -2.79523199e-06 0)
(-0.00573572945 -2.73368035e-06 0)
(-0.00582704318 -2.65121738e-06 0)
(-0.00591548338 -2.54739064e-06 0)
(-0.00600034654 -2.42205253e-06 0)
(-0.00608091768 -2.27542864e-06 0)
(-0.00615651885 -2.10955242e-06 0)
(-0.00622653014 -1.92553385e-06 0)
(-0.00629033861 -1.72366297e-06 0)
(-0.00634736874 -1.50647435e-06 0)
(-0.00639714566 -1.27734576e-06 0)
(-0.00643930738 -1.03992597e-06 0)
(-0.00647361047 -7.97850991e-07 0)
(-0.00649992177 -5.54889606e-07 0)
(-0.006518251 -3.15638159e-07 0)
(-0.00652873681 -8.29109508e-08 0)
)
;
    }
    inlet_half0
    {
        type            cyclic;
    }
    inlet_half1
    {
        type            cyclic;
    }
    outlet_half0
    {
        type            cyclic;
    }
    outlet_half1
    {
        type            cyclic;
    }
    sideRight_half0
    {
        type            empty;
    }
    sideRight_half1
    {
        type            empty;
    }
    sideLeft_half0
    {
        type            empty;
    }
    sideLeft_half1
    {
        type            empty;
    }
}


// ************************************************************************* //
