/*--------------------------------*- C++ -*----------------------------------*\
| =========                 |                                                 |
| \\      /  F ield         | OpenFOAM: The Open Source CFD Toolbox           |
|  \\    /   O peration     | Version:  2112                                  |
|   \\  /    A nd           | Website:  www.openfoam.com                      |
|    \\/     M anipulation  |                                                 |
\*---------------------------------------------------------------------------*/
FoamFile
{
    version     2.0;
    format      ascii;
    arch        "LSB;label=32;scalar=64";
    class       volVectorField;
    location    "7000";
    object      wallShearStress_HF;
}
// * * * * * * * * * * * * * * * * * * * * * * * * * * * * * * * * * * * * * //

dimensions      [0 2 -2 0 0 0 0];

internalField   uniform (0 0 0);

boundaryField
{
    bottomWall
    {
        type            calculated;
        value           nonuniform List<vector> 
99
(
(-6.92803369e-07 -6.35165692e-08 -0)
(-9.64051846e-07 -6.22853511e-08 4.53183124e-23)
(3.29644274e-07 -1.44205571e-07 -3.03454413e-22)
(7.4144751e-07 -3.43083961e-07 -6.81952118e-26)
(9.26172104e-07 -5.99311263e-07 -8.09888088e-22)
(8.53425969e-07 -7.16351453e-07 3.6230075e-22)
(8.42722444e-07 -7.35441452e-07 -3.09560531e-22)
(4.90035515e-07 -4.43333795e-07 -1.83670992e-40)
(3.56225568e-07 -3.48525473e-07 2.93132683e-22)
(3.59748937e-07 -3.1922094e-07 -2.9891009e-22)
(3.22766681e-07 -2.84753218e-07 -7.25135654e-26)
(5.32118981e-07 -4.39839589e-07 7.31290917e-26)
(5.30128833e-07 -4.24992594e-07 -1.9209302e-38)
(4.86068389e-07 -3.80112533e-07 5.82810121e-39)
(7.71456965e-07 -5.37147596e-07 9.07449496e-39)
(7.28873814e-07 -4.65501491e-07 -9.18354962e-41)
(6.776391e-07 -3.59824203e-07 -3.1919209e-22)
(6.2770613e-07 -2.69048096e-07 -1.64839934e-22)
(5.74421765e-07 -1.87407934e-07 3.37959146e-22)
(7.80794131e-07 -1.88721321e-07 -8.54047738e-23)
(7.48133408e-07 -9.019322e-08 -4.26668036e-23)
(7.8593213e-07 -2.73932997e-08 1.35247954e-24)
(1.12413891e-06 -3.08459317e-08 -4.01776749e-28)
(1.30310405e-06 -3.33660957e-08 7.34560225e-29)
(1.48503666e-06 -3.60856299e-08 5.21471408e-30)
(1.60195001e-06 -3.80875457e-08 1.47519917e-30)
(1.6929583e-06 -4.01735722e-08 -4.01971883e-30)
(1.74433118e-06 -4.21152301e-08 -2.07278697e-31)
(1.7693696e-06 -4.35385358e-08 1.92551024e-30)
(1.7693161e-06 -4.54105626e-08 -2.99811607e-30)
(1.75692038e-06 -4.68153884e-08 1.39072573e-30)
(1.72349268e-06 -4.81173336e-08 -9.63955486e-31)
(1.68288566e-06 -4.90820141e-08 5.26382556e-31)
(1.62490585e-06 -4.92829189e-08 -2.76426135e-30)
(1.55103407e-06 -4.90595681e-08 -1.14445628e-30)
(1.46989785e-06 -4.88768427e-08 -7.7696317e-31)
(1.39502081e-06 -4.8650553e-08 -1.09881708e-31)
(1.30401003e-06 -4.87054657e-08 -1.76388725e-30)
(1.21586989e-06 -4.83957548e-08 -8.72269399e-31)
(1.11831861e-06 -4.87760253e-08 1.49279775e-30)
(1.04242263e-06 -4.84492333e-08 -4.06125684e-31)
(9.62105148e-07 -4.77128462e-08 1.12340848e-30)
(8.81045652e-07 -4.76300163e-08 -1.95194014e-30)
(8.07165111e-07 -4.71337532e-08 2.0374124e-30)
(7.16033964e-07 -4.62878631e-08 8.83675289e-31)
(6.33870477e-07 -4.59742359e-08 -8.59884228e-32)
(5.4499649e-07 -4.5530058e-08 5.34126563e-31)
(4.50028556e-07 -4.49672666e-08 2.88671734e-31)
(3.90885484e-07 -4.44752899e-08 6.66033698e-31)
(3.09354866e-07 -4.35836365e-08 1.82100533e-31)
(2.22091593e-07 -4.26489882e-08 5.79832277e-31)
(1.60428934e-07 -4.23657952e-08 2.41376792e-30)
(1.14385732e-07 -4.16404993e-08 1.25291804e-31)
(6.47231351e-08 -4.0826036e-08 1.21944986e-31)
(5.19229516e-09 -4.02302957e-08 9.00505476e-32)
(-6.13498373e-08 -3.8966488e-08 3.76437707e-30)
(-1.09413134e-07 -3.82404426e-08 2.11844785e-31)
(-1.54747484e-07 -3.74427548e-08 2.0804829e-31)
(-1.91533566e-07 -3.69609104e-08 8.13717967e-30)
(-2.2902033e-07 -3.65631701e-08 3.99017551e-31)
(-2.68063141e-07 -3.61939389e-08 3.88851853e-31)
(-3.13105428e-07 -3.5436535e-08 -1.74175453e-30)
(-3.52250775e-07 -3.48796929e-08 3.58329415e-31)
(-3.75175009e-07 -3.41734483e-08 3.55440653e-31)
(-3.94958914e-07 -3.33097017e-08 3.54640109e-31)
(-4.06780343e-07 -3.23460257e-08 1.88315448e-29)
(-4.16919492e-07 -3.139508e-08 -1.81310918e-29)
(-4.19885074e-07 -3.06605779e-08 -2.40212577e-31)
(-4.10595796e-07 -3.01570577e-08 3.61268086e-31)
(-3.97862855e-07 -2.93990315e-08 -9.60908826e-30)
(-3.8387047e-07 -2.8660427e-08 5.236921e-30)
(-3.63867561e-07 -2.82083623e-08 -7.56812143e-30)
(-3.3159588e-07 -2.77633587e-08 -7.8421785e-30)
(-2.82013175e-07 -2.72710249e-08 -1.89834905e-29)
(-2.23940214e-07 -2.67405445e-08 2.34176462e-31)
(-1.41721814e-07 -2.63197172e-08 -6.84435889e-29)
(-5.55575798e-08 -2.61496037e-08 1.66921258e-27)
(1.07547758e-07 -2.35385446e-08 -6.18458668e-24)
(4.92714856e-08 -5.88743999e-08 -1.01933876e-22)
(2.07106153e-07 -9.60474058e-10 -4.14129727e-22)
(-1.50074223e-07 -7.52363371e-08 -4.13569071e-22)
(-1.22905697e-07 -9.89571042e-08 -4.08354874e-22)
(-3.61960171e-07 -2.39931887e-07 -2.2813561e-24)
(-5.38670457e-07 -3.87465739e-07 -7.69871954e-22)
(-9.28159699e-07 -6.90699648e-07 7.42031985e-22)
(-1.22823639e-06 -9.09006254e-07 -1.74028725e-25)
(-1.28339376e-06 -1.02496049e-06 -1.35761844e-21)
(-2.03408623e-06 -1.62796247e-06 0)
(-2.12677343e-06 -1.74873962e-06 -7.45857363e-39)
(-2.85634912e-06 -2.38369052e-06 0)
(-3.44335421e-06 -2.95348962e-06 2.05355084e-25)
(-4.65588952e-06 -3.9835332e-06 3.63117656e-22)
(-6.66522844e-06 -5.53016278e-06 -1.85213914e-22)
(-9.39952577e-06 -6.98739796e-06 7.50449991e-26)
(-1.20127585e-05 -6.92748296e-06 -5.47050995e-22)
(-1.28020465e-05 -4.68153049e-06 5.43415315e-22)
(-7.16470595e-06 -1.22881571e-06 5.97121703e-22)
(-2.08629614e-06 -1.22088546e-07 -6.88498052e-27)
(-1.72674499e-07 -6.3343695e-08 6.9232805e-27)
)
;
    }
    defaultFaces
    {
        type            empty;
    }
    inlet
    {
        type            cyclic;
    }
    outlet
    {
        type            cyclic;
    }
    topWall
    {
        type            calculated;
        value           nonuniform List<vector> 
99
(
(-4.1315964e-06 2.98710282e-08 0)
(-4.13327074e-06 3.05269023e-08 0)
(-4.15440264e-06 2.99201839e-08 -2.56943409e-30)
(-4.14655147e-06 3.00343357e-08 2.57068157e-30)
(-4.14642725e-06 2.98135275e-08 -9.74445303e-30)
(-4.12904398e-06 2.93321176e-08 1.8804859e-28)
(-4.10744018e-06 2.92549491e-08 0)
(-4.07800539e-06 2.88989228e-08 -4.24135526e-30)
(-4.04104778e-06 2.85833501e-08 -5.97410785e-31)
(-3.99769499e-06 2.83367889e-08 -6.02275594e-30)
(-3.94940267e-06 2.80839065e-08 -1.14839659e-30)
(-3.89630502e-06 2.78055847e-08 8.26043626e-28)
(-3.83839356e-06 2.77870614e-08 0)
(-3.77773221e-06 2.75676923e-08 -3.05516913e-29)
(-3.71424459e-06 2.73851245e-08 -9.8709302e-28)
(-3.64906143e-06 2.75220581e-08 -5.39318276e-28)
(-3.58296399e-06 2.74385001e-08 3.60819622e-29)
(-3.51634403e-06 2.71998617e-08 -3.61174595e-29)
(-3.45037547e-06 2.71105186e-08 -6.18965089e-28)
(-3.38457257e-06 2.7154333e-08 -6.41266841e-28)
(-3.31982496e-06 2.7228764e-08 0)
(-3.25642032e-06 2.73794327e-08 -7.2207175e-28)
(-3.19536279e-06 2.71934559e-08 4.27396295e-29)
(-3.1364814e-06 2.74308024e-08 -4.44074407e-29)
(-3.07957063e-06 2.79468627e-08 4.44401969e-29)
(-3.02479933e-06 2.81936298e-08 1.45953579e-27)
(-2.97246385e-06 2.82608945e-08 0)
(-2.92252011e-06 2.8752279e-08 3.71376984e-28)
(-2.8745615e-06 2.88218374e-08 0)
(-2.82817174e-06 2.91613005e-08 0)
(-2.78394482e-06 2.9084309e-08 0)
(-2.74171994e-06 2.95863471e-08 0)
(-2.70156396e-06 2.94979697e-08 0)
(-2.66309735e-06 2.96702161e-08 2.28070715e-29)
(-2.62623583e-06 3.03598681e-08 -2.28163861e-29)
(-2.59108343e-06 3.04938945e-08 7.44638121e-28)
(-2.55747266e-06 3.06060957e-08 -7.34891161e-28)
(-2.52494419e-06 3.06066313e-08 -7.01430689e-28)
(-2.49372541e-06 3.10255231e-08 0)
(-2.46426096e-06 3.09277154e-08 0)
(-2.43606967e-06 3.10545027e-08 5.05984336e-30)
(-2.40914808e-06 3.10775226e-08 -5.06113382e-30)
(-2.38301051e-06 3.14275717e-08 -4.78737755e-30)
(-2.35781062e-06 3.12300519e-08 4.78838369e-30)
(-2.33429423e-06 3.11698331e-08 2.24023778e-30)
(-2.31297664e-06 3.06287766e-08 -2.24060523e-30)
(-2.29355183e-06 3.05084588e-08 -1.03614602e-30)
(-2.27568347e-06 3.03138002e-08 -2.60788018e-28)
(-2.2586832e-06 2.9977801e-08 0)
(-2.24390956e-06 2.94945572e-08 2.24467637e-31)
(-2.23107432e-06 2.90675886e-08 -2.24481653e-31)
(-2.22030244e-06 2.87014976e-08 -3.99383417e-31)
(-2.21189278e-06 2.80954334e-08 3.99389748e-31)
(-2.20604858e-06 2.73942268e-08 6.95606859e-31)
(-2.20262277e-06 2.70956294e-08 1.74052982e-28)
(-2.20284296e-06 2.66465555e-08 -2.46583185e-30)
(-2.20574187e-06 2.63872922e-08 1.17974904e-30)
(-2.21222625e-06 2.58006689e-08 0)
(-2.22161038e-06 2.55532169e-08 0)
(-2.23427613e-06 2.50069199e-08 0)
(-2.24992166e-06 2.4263298e-08 -3.649093e-28)
(-2.26901263e-06 2.37311535e-08 -6.18302235e-28)
(-2.29159573e-06 2.3249535e-08 -2.15033932e-30)
(-2.31746721e-06 2.29013549e-08 -1.31900078e-30)
(-2.3462903e-06 2.2549519e-08 -5.10015316e-31)
(-2.37848336e-06 2.19238308e-08 5.23789263e-29)
(-2.41345174e-06 2.17135088e-08 -2.5530719e-29)
(-2.45064563e-06 2.16830604e-08 0)
(-2.49026745e-06 2.08141613e-08 -1.19864909e-30)
(-2.53221812e-06 2.07123819e-08 1.19802767e-30)
(-2.5768834e-06 2.0385239e-08 0)
(-2.62369436e-06 2.04436163e-08 0)
(-2.67255424e-06 2.01496074e-08 0)
(-2.7232296e-06 2.02661175e-08 0)
(-2.77594995e-06 2.02979462e-08 -1.79630371e-29)
(-2.83061448e-06 2.00743636e-08 1.06450658e-29)
(-2.88698041e-06 2.04475086e-08 2.26201338e-29)
(-2.94468454e-06 2.04270122e-08 -2.37614357e-29)
(-3.00272653e-06 2.01682229e-08 2.4139123e-29)
(-3.06175164e-06 2.04692137e-08 1.29280552e-29)
(-3.12181761e-06 2.09480278e-08 -2.71128654e-29)
(-3.18230127e-06 2.11300895e-08 0)
(-3.24359701e-06 2.15535654e-08 0)
(-3.30541619e-06 2.18521238e-08 1.4748702e-29)
(-3.36782965e-06 2.24664254e-08 -1.47338865e-29)
(-3.43069742e-06 2.28954915e-08 0)
(-3.49345784e-06 2.35759767e-08 0)
(-3.5559707e-06 2.42557451e-08 0)
(-3.61771088e-06 2.49301185e-08 0)
(-3.67883472e-06 2.56508661e-08 4.25114316e-28)
(-3.73897404e-06 2.64781462e-08 -3.25982269e-30)
(-3.79666342e-06 2.72345765e-08 0)
(-3.85322526e-06 2.7678848e-08 -2.59436062e-30)
(-3.90556599e-06 2.82874663e-08 -1.20264422e-29)
(-3.95558044e-06 2.87296703e-08 5.74288457e-30)
(-4.00066305e-06 2.91916127e-08 -1.96499935e-30)
(-4.04256008e-06 2.99233636e-08 -4.40566365e-29)
(-4.0660061e-06 2.97895251e-08 5.95166789e-31)
(-4.11008021e-06 3.06182516e-08 3.35533712e-29)
)
;
    }
}


// ************************************************************************* //
