/*--------------------------------*- C++ -*----------------------------------*\
| =========                 |                                                 |
| \\      /  F ield         | OpenFOAM: The Open Source CFD Toolbox           |
|  \\    /   O peration     | Version:  2212                                  |
|   \\  /    A nd           | Website:  www.openfoam.com                      |
|    \\/     M anipulation  |                                                 |
\*---------------------------------------------------------------------------*/
FoamFile
{
    version     2.0;
    format      ascii;
    arch        "LSB;label=32;scalar=64";
    class       volVectorField;
    location    "0";
    object      C;
}
// * * * * * * * * * * * * * * * * * * * * * * * * * * * * * * * * * * * * * //

dimensions      [0 1 0 0 0 0 0];

internalField   nonuniform List<vector> 
2304
(
(0.025 0.0124562 -0.498505)
(0.025 0.0368192 -0.498505)
(0.025 0.0601075 -0.498505)
(0.025 0.0823686 -0.498505)
(0.025 0.103648 -0.498505)
(0.025 0.123988 -0.498505)
(0.025 0.143432 -0.498505)
(0.025 0.162017 -0.498505)
(0.025 0.179783 -0.498505)
(0.025 0.196766 -0.498505)
(0.025 0.212999 -0.498505)
(0.025 0.228516 -0.498505)
(0.025 0.243348 -0.498505)
(0.025 0.257527 -0.498505)
(0.025 0.27108 -0.498505)
(0.025 0.284035 -0.498505)
(0.025 0.296419 -0.498505)
(0.025 0.308256 -0.498505)
(0.025 0.319572 -0.498505)
(0.025 0.330388 -0.498505)
(0.025 0.340727 -0.498505)
(0.025 0.35061 -0.498505)
(0.025 0.360057 -0.498505)
(0.025 0.369088 -0.498505)
(0.025 0.37772 -0.498505)
(0.025 0.385971 -0.498505)
(0.025 0.393859 -0.498505)
(0.025 0.401398 -0.498505)
(0.025 0.408605 -0.498505)
(0.025 0.415494 -0.498505)
(0.025 0.422079 -0.498505)
(0.025 0.428374 -0.498505)
(0.025 0.434391 -0.498505)
(0.025 0.440142 -0.498505)
(0.025 0.44564 -0.498505)
(0.025 0.450896 -0.498505)
(0.025 0.455919 -0.498505)
(0.025 0.460721 -0.498505)
(0.025 0.465312 -0.498505)
(0.025 0.469699 -0.498505)
(0.025 0.473893 -0.498505)
(0.025 0.477903 -0.498505)
(0.025 0.481735 -0.498505)
(0.025 0.485398 -0.498505)
(0.025 0.4889 -0.498505)
(0.025 0.492247 -0.498505)
(0.025 0.495447 -0.498505)
(0.025 0.498505 -0.498505)
(0.025 0.0124562 -0.495447)
(0.025 0.0368192 -0.495447)
(0.025 0.0601075 -0.495447)
(0.025 0.0823686 -0.495447)
(0.025 0.103648 -0.495447)
(0.025 0.123988 -0.495447)
(0.025 0.143432 -0.495447)
(0.025 0.162017 -0.495447)
(0.025 0.179783 -0.495447)
(0.025 0.196766 -0.495447)
(0.025 0.212999 -0.495447)
(0.025 0.228516 -0.495447)
(0.025 0.243348 -0.495447)
(0.025 0.257527 -0.495447)
(0.025 0.27108 -0.495447)
(0.025 0.284035 -0.495447)
(0.025 0.296419 -0.495447)
(0.025 0.308256 -0.495447)
(0.025 0.319572 -0.495447)
(0.025 0.330388 -0.495447)
(0.025 0.340727 -0.495447)
(0.025 0.35061 -0.495447)
(0.025 0.360057 -0.495447)
(0.025 0.369088 -0.495447)
(0.025 0.37772 -0.495447)
(0.025 0.385971 -0.495447)
(0.025 0.393859 -0.495447)
(0.025 0.401398 -0.495447)
(0.025 0.408605 -0.495447)
(0.025 0.415494 -0.495447)
(0.025 0.422079 -0.495447)
(0.025 0.428374 -0.495447)
(0.025 0.434391 -0.495447)
(0.025 0.440142 -0.495447)
(0.025 0.44564 -0.495447)
(0.025 0.450896 -0.495447)
(0.025 0.455919 -0.495447)
(0.025 0.460721 -0.495447)
(0.025 0.465312 -0.495447)
(0.025 0.469699 -0.495447)
(0.025 0.473893 -0.495447)
(0.025 0.477903 -0.495447)
(0.025 0.481735 -0.495447)
(0.025 0.485398 -0.495447)
(0.025 0.4889 -0.495447)
(0.025 0.492247 -0.495447)
(0.025 0.495447 -0.495447)
(0.025 0.498505 -0.495447)
(0.025 0.0124562 -0.492247)
(0.025 0.0368192 -0.492247)
(0.025 0.0601075 -0.492247)
(0.025 0.0823686 -0.492247)
(0.025 0.103648 -0.492247)
(0.025 0.123988 -0.492247)
(0.025 0.143432 -0.492247)
(0.025 0.162017 -0.492247)
(0.025 0.179783 -0.492247)
(0.025 0.196766 -0.492247)
(0.025 0.212999 -0.492247)
(0.025 0.228516 -0.492247)
(0.025 0.243348 -0.492247)
(0.025 0.257527 -0.492247)
(0.025 0.27108 -0.492247)
(0.025 0.284035 -0.492247)
(0.025 0.296419 -0.492247)
(0.025 0.308256 -0.492247)
(0.025 0.319572 -0.492247)
(0.025 0.330388 -0.492247)
(0.025 0.340727 -0.492247)
(0.025 0.35061 -0.492247)
(0.025 0.360057 -0.492247)
(0.025 0.369088 -0.492247)
(0.025 0.37772 -0.492247)
(0.025 0.385971 -0.492247)
(0.025 0.393859 -0.492247)
(0.025 0.401398 -0.492247)
(0.025 0.408605 -0.492247)
(0.025 0.415494 -0.492247)
(0.025 0.422079 -0.492247)
(0.025 0.428374 -0.492247)
(0.025 0.434391 -0.492247)
(0.025 0.440142 -0.492247)
(0.025 0.44564 -0.492247)
(0.025 0.450896 -0.492247)
(0.025 0.455919 -0.492247)
(0.025 0.460721 -0.492247)
(0.025 0.465312 -0.492247)
(0.025 0.469699 -0.492247)
(0.025 0.473893 -0.492247)
(0.025 0.477903 -0.492247)
(0.025 0.481735 -0.492247)
(0.025 0.485398 -0.492247)
(0.025 0.4889 -0.492247)
(0.025 0.492247 -0.492247)
(0.025 0.495447 -0.492247)
(0.025 0.498505 -0.492247)
(0.025 0.0124562 -0.4889)
(0.025 0.0368192 -0.4889)
(0.025 0.0601075 -0.4889)
(0.025 0.0823686 -0.4889)
(0.025 0.103648 -0.4889)
(0.025 0.123988 -0.4889)
(0.025 0.143432 -0.4889)
(0.025 0.162017 -0.4889)
(0.025 0.179783 -0.4889)
(0.025 0.196766 -0.4889)
(0.025 0.212999 -0.4889)
(0.025 0.228516 -0.4889)
(0.025 0.243348 -0.4889)
(0.025 0.257527 -0.4889)
(0.025 0.27108 -0.4889)
(0.025 0.284035 -0.4889)
(0.025 0.296419 -0.4889)
(0.025 0.308256 -0.4889)
(0.025 0.319572 -0.4889)
(0.025 0.330388 -0.4889)
(0.025 0.340727 -0.4889)
(0.025 0.35061 -0.4889)
(0.025 0.360057 -0.4889)
(0.025 0.369088 -0.4889)
(0.025 0.37772 -0.4889)
(0.025 0.385971 -0.4889)
(0.025 0.393859 -0.4889)
(0.025 0.401398 -0.4889)
(0.025 0.408605 -0.4889)
(0.025 0.415494 -0.4889)
(0.025 0.422079 -0.4889)
(0.025 0.428374 -0.4889)
(0.025 0.434391 -0.4889)
(0.025 0.440142 -0.4889)
(0.025 0.44564 -0.4889)
(0.025 0.450896 -0.4889)
(0.025 0.455919 -0.4889)
(0.025 0.460721 -0.4889)
(0.025 0.465312 -0.4889)
(0.025 0.469699 -0.4889)
(0.025 0.473893 -0.4889)
(0.025 0.477903 -0.4889)
(0.025 0.481735 -0.4889)
(0.025 0.485398 -0.4889)
(0.025 0.4889 -0.4889)
(0.025 0.492247 -0.4889)
(0.025 0.495447 -0.4889)
(0.025 0.498505 -0.4889)
(0.025 0.0124562 -0.485398)
(0.025 0.0368192 -0.485398)
(0.025 0.0601075 -0.485398)
(0.025 0.0823686 -0.485398)
(0.025 0.103648 -0.485398)
(0.025 0.123988 -0.485398)
(0.025 0.143432 -0.485398)
(0.025 0.162017 -0.485398)
(0.025 0.179783 -0.485398)
(0.025 0.196766 -0.485398)
(0.025 0.212999 -0.485398)
(0.025 0.228516 -0.485398)
(0.025 0.243348 -0.485398)
(0.025 0.257527 -0.485398)
(0.025 0.27108 -0.485398)
(0.025 0.284035 -0.485398)
(0.025 0.296419 -0.485398)
(0.025 0.308256 -0.485398)
(0.025 0.319572 -0.485398)
(0.025 0.330388 -0.485398)
(0.025 0.340727 -0.485398)
(0.025 0.35061 -0.485398)
(0.025 0.360057 -0.485398)
(0.025 0.369088 -0.485398)
(0.025 0.37772 -0.485398)
(0.025 0.385971 -0.485398)
(0.025 0.393859 -0.485398)
(0.025 0.401398 -0.485398)
(0.025 0.408605 -0.485398)
(0.025 0.415494 -0.485398)
(0.025 0.422079 -0.485398)
(0.025 0.428374 -0.485398)
(0.025 0.434391 -0.485398)
(0.025 0.440142 -0.485398)
(0.025 0.44564 -0.485398)
(0.025 0.450896 -0.485398)
(0.025 0.455919 -0.485398)
(0.025 0.460721 -0.485398)
(0.025 0.465312 -0.485398)
(0.025 0.469699 -0.485398)
(0.025 0.473893 -0.485398)
(0.025 0.477903 -0.485398)
(0.025 0.481735 -0.485398)
(0.025 0.485398 -0.485398)
(0.025 0.4889 -0.485398)
(0.025 0.492247 -0.485398)
(0.025 0.495447 -0.485398)
(0.025 0.498505 -0.485398)
(0.025 0.0124562 -0.481735)
(0.025 0.0368192 -0.481735)
(0.025 0.0601075 -0.481735)
(0.025 0.0823686 -0.481735)
(0.025 0.103648 -0.481735)
(0.025 0.123988 -0.481735)
(0.025 0.143432 -0.481735)
(0.025 0.162017 -0.481735)
(0.025 0.179783 -0.481735)
(0.025 0.196766 -0.481735)
(0.025 0.212999 -0.481735)
(0.025 0.228516 -0.481735)
(0.025 0.243348 -0.481735)
(0.025 0.257527 -0.481735)
(0.025 0.27108 -0.481735)
(0.025 0.284035 -0.481735)
(0.025 0.296419 -0.481735)
(0.025 0.308256 -0.481735)
(0.025 0.319572 -0.481735)
(0.025 0.330388 -0.481735)
(0.025 0.340727 -0.481735)
(0.025 0.35061 -0.481735)
(0.025 0.360057 -0.481735)
(0.025 0.369088 -0.481735)
(0.025 0.37772 -0.481735)
(0.025 0.385971 -0.481735)
(0.025 0.393859 -0.481735)
(0.025 0.401398 -0.481735)
(0.025 0.408605 -0.481735)
(0.025 0.415494 -0.481735)
(0.025 0.422079 -0.481735)
(0.025 0.428374 -0.481735)
(0.025 0.434391 -0.481735)
(0.025 0.440142 -0.481735)
(0.025 0.44564 -0.481735)
(0.025 0.450896 -0.481735)
(0.025 0.455919 -0.481735)
(0.025 0.460721 -0.481735)
(0.025 0.465312 -0.481735)
(0.025 0.469699 -0.481735)
(0.025 0.473893 -0.481735)
(0.025 0.477903 -0.481735)
(0.025 0.481735 -0.481735)
(0.025 0.485398 -0.481735)
(0.025 0.4889 -0.481735)
(0.025 0.492247 -0.481735)
(0.025 0.495447 -0.481735)
(0.025 0.498505 -0.481735)
(0.025 0.0124562 -0.477903)
(0.025 0.0368192 -0.477903)
(0.025 0.0601075 -0.477903)
(0.025 0.0823686 -0.477903)
(0.025 0.103648 -0.477903)
(0.025 0.123988 -0.477903)
(0.025 0.143432 -0.477903)
(0.025 0.162017 -0.477903)
(0.025 0.179783 -0.477903)
(0.025 0.196766 -0.477903)
(0.025 0.212999 -0.477903)
(0.025 0.228516 -0.477903)
(0.025 0.243348 -0.477903)
(0.025 0.257527 -0.477903)
(0.025 0.27108 -0.477903)
(0.025 0.284035 -0.477903)
(0.025 0.296419 -0.477903)
(0.025 0.308256 -0.477903)
(0.025 0.319572 -0.477903)
(0.025 0.330388 -0.477903)
(0.025 0.340727 -0.477903)
(0.025 0.35061 -0.477903)
(0.025 0.360057 -0.477903)
(0.025 0.369088 -0.477903)
(0.025 0.37772 -0.477903)
(0.025 0.385971 -0.477903)
(0.025 0.393859 -0.477903)
(0.025 0.401398 -0.477903)
(0.025 0.408605 -0.477903)
(0.025 0.415494 -0.477903)
(0.025 0.422079 -0.477903)
(0.025 0.428374 -0.477903)
(0.025 0.434391 -0.477903)
(0.025 0.440142 -0.477903)
(0.025 0.44564 -0.477903)
(0.025 0.450896 -0.477903)
(0.025 0.455919 -0.477903)
(0.025 0.460721 -0.477903)
(0.025 0.465312 -0.477903)
(0.025 0.469699 -0.477903)
(0.025 0.473893 -0.477903)
(0.025 0.477903 -0.477903)
(0.025 0.481735 -0.477903)
(0.025 0.485398 -0.477903)
(0.025 0.4889 -0.477903)
(0.025 0.492247 -0.477903)
(0.025 0.495447 -0.477903)
(0.025 0.498505 -0.477903)
(0.025 0.0124562 -0.473893)
(0.025 0.0368192 -0.473893)
(0.025 0.0601075 -0.473893)
(0.025 0.0823686 -0.473893)
(0.025 0.103648 -0.473893)
(0.025 0.123988 -0.473893)
(0.025 0.143432 -0.473893)
(0.025 0.162017 -0.473893)
(0.025 0.179783 -0.473893)
(0.025 0.196766 -0.473893)
(0.025 0.212999 -0.473893)
(0.025 0.228516 -0.473893)
(0.025 0.243348 -0.473893)
(0.025 0.257527 -0.473893)
(0.025 0.27108 -0.473893)
(0.025 0.284035 -0.473893)
(0.025 0.296419 -0.473893)
(0.025 0.308256 -0.473893)
(0.025 0.319572 -0.473893)
(0.025 0.330388 -0.473893)
(0.025 0.340727 -0.473893)
(0.025 0.35061 -0.473893)
(0.025 0.360057 -0.473893)
(0.025 0.369088 -0.473893)
(0.025 0.37772 -0.473893)
(0.025 0.385971 -0.473893)
(0.025 0.393859 -0.473893)
(0.025 0.401398 -0.473893)
(0.025 0.408605 -0.473893)
(0.025 0.415494 -0.473893)
(0.025 0.422079 -0.473893)
(0.025 0.428374 -0.473893)
(0.025 0.434391 -0.473893)
(0.025 0.440142 -0.473893)
(0.025 0.44564 -0.473893)
(0.025 0.450896 -0.473893)
(0.025 0.455919 -0.473893)
(0.025 0.460721 -0.473893)
(0.025 0.465312 -0.473893)
(0.025 0.469699 -0.473893)
(0.025 0.473893 -0.473893)
(0.025 0.477903 -0.473893)
(0.025 0.481735 -0.473893)
(0.025 0.485398 -0.473893)
(0.025 0.4889 -0.473893)
(0.025 0.492247 -0.473893)
(0.025 0.495447 -0.473893)
(0.025 0.498505 -0.473893)
(0.025 0.0124562 -0.469699)
(0.025 0.0368192 -0.469699)
(0.025 0.0601075 -0.469699)
(0.025 0.0823686 -0.469699)
(0.025 0.103648 -0.469699)
(0.025 0.123988 -0.469699)
(0.025 0.143432 -0.469699)
(0.025 0.162017 -0.469699)
(0.025 0.179783 -0.469699)
(0.025 0.196766 -0.469699)
(0.025 0.212999 -0.469699)
(0.025 0.228516 -0.469699)
(0.025 0.243348 -0.469699)
(0.025 0.257527 -0.469699)
(0.025 0.27108 -0.469699)
(0.025 0.284035 -0.469699)
(0.025 0.296419 -0.469699)
(0.025 0.308256 -0.469699)
(0.025 0.319572 -0.469699)
(0.025 0.330388 -0.469699)
(0.025 0.340727 -0.469699)
(0.025 0.35061 -0.469699)
(0.025 0.360057 -0.469699)
(0.025 0.369088 -0.469699)
(0.025 0.37772 -0.469699)
(0.025 0.385971 -0.469699)
(0.025 0.393859 -0.469699)
(0.025 0.401398 -0.469699)
(0.025 0.408605 -0.469699)
(0.025 0.415494 -0.469699)
(0.025 0.422079 -0.469699)
(0.025 0.428374 -0.469699)
(0.025 0.434391 -0.469699)
(0.025 0.440142 -0.469699)
(0.025 0.44564 -0.469699)
(0.025 0.450896 -0.469699)
(0.025 0.455919 -0.469699)
(0.025 0.460721 -0.469699)
(0.025 0.465312 -0.469699)
(0.025 0.469699 -0.469699)
(0.025 0.473893 -0.469699)
(0.025 0.477903 -0.469699)
(0.025 0.481735 -0.469699)
(0.025 0.485398 -0.469699)
(0.025 0.4889 -0.469699)
(0.025 0.492247 -0.469699)
(0.025 0.495447 -0.469699)
(0.025 0.498505 -0.469699)
(0.025 0.0124562 -0.465312)
(0.025 0.0368192 -0.465312)
(0.025 0.0601075 -0.465312)
(0.025 0.0823686 -0.465312)
(0.025 0.103648 -0.465312)
(0.025 0.123988 -0.465312)
(0.025 0.143432 -0.465312)
(0.025 0.162017 -0.465312)
(0.025 0.179783 -0.465312)
(0.025 0.196766 -0.465312)
(0.025 0.212999 -0.465312)
(0.025 0.228516 -0.465312)
(0.025 0.243348 -0.465312)
(0.025 0.257527 -0.465312)
(0.025 0.27108 -0.465312)
(0.025 0.284035 -0.465312)
(0.025 0.296419 -0.465312)
(0.025 0.308256 -0.465312)
(0.025 0.319572 -0.465312)
(0.025 0.330388 -0.465312)
(0.025 0.340727 -0.465312)
(0.025 0.35061 -0.465312)
(0.025 0.360057 -0.465312)
(0.025 0.369088 -0.465312)
(0.025 0.37772 -0.465312)
(0.025 0.385971 -0.465312)
(0.025 0.393859 -0.465312)
(0.025 0.401398 -0.465312)
(0.025 0.408605 -0.465312)
(0.025 0.415494 -0.465312)
(0.025 0.422079 -0.465312)
(0.025 0.428374 -0.465312)
(0.025 0.434391 -0.465312)
(0.025 0.440142 -0.465312)
(0.025 0.44564 -0.465312)
(0.025 0.450896 -0.465312)
(0.025 0.455919 -0.465312)
(0.025 0.460721 -0.465312)
(0.025 0.465312 -0.465312)
(0.025 0.469699 -0.465312)
(0.025 0.473893 -0.465312)
(0.025 0.477903 -0.465312)
(0.025 0.481735 -0.465312)
(0.025 0.485398 -0.465312)
(0.025 0.4889 -0.465312)
(0.025 0.492247 -0.465312)
(0.025 0.495447 -0.465312)
(0.025 0.498505 -0.465312)
(0.025 0.0124562 -0.460721)
(0.025 0.0368192 -0.460721)
(0.025 0.0601075 -0.460721)
(0.025 0.0823686 -0.460721)
(0.025 0.103648 -0.460721)
(0.025 0.123988 -0.460721)
(0.025 0.143432 -0.460721)
(0.025 0.162017 -0.460721)
(0.025 0.179783 -0.460721)
(0.025 0.196766 -0.460721)
(0.025 0.212999 -0.460721)
(0.025 0.228516 -0.460721)
(0.025 0.243348 -0.460721)
(0.025 0.257527 -0.460721)
(0.025 0.27108 -0.460721)
(0.025 0.284035 -0.460721)
(0.025 0.296419 -0.460721)
(0.025 0.308256 -0.460721)
(0.025 0.319572 -0.460721)
(0.025 0.330388 -0.460721)
(0.025 0.340727 -0.460721)
(0.025 0.35061 -0.460721)
(0.025 0.360057 -0.460721)
(0.025 0.369088 -0.460721)
(0.025 0.37772 -0.460721)
(0.025 0.385971 -0.460721)
(0.025 0.393859 -0.460721)
(0.025 0.401398 -0.460721)
(0.025 0.408605 -0.460721)
(0.025 0.415494 -0.460721)
(0.025 0.422079 -0.460721)
(0.025 0.428374 -0.460721)
(0.025 0.434391 -0.460721)
(0.025 0.440142 -0.460721)
(0.025 0.44564 -0.460721)
(0.025 0.450896 -0.460721)
(0.025 0.455919 -0.460721)
(0.025 0.460721 -0.460721)
(0.025 0.465312 -0.460721)
(0.025 0.469699 -0.460721)
(0.025 0.473893 -0.460721)
(0.025 0.477903 -0.460721)
(0.025 0.481735 -0.460721)
(0.025 0.485398 -0.460721)
(0.025 0.4889 -0.460721)
(0.025 0.492247 -0.460721)
(0.025 0.495447 -0.460721)
(0.025 0.498505 -0.460721)
(0.025 0.0124562 -0.455919)
(0.025 0.0368192 -0.455919)
(0.025 0.0601075 -0.455919)
(0.025 0.0823686 -0.455919)
(0.025 0.103648 -0.455919)
(0.025 0.123988 -0.455919)
(0.025 0.143432 -0.455919)
(0.025 0.162017 -0.455919)
(0.025 0.179783 -0.455919)
(0.025 0.196766 -0.455919)
(0.025 0.212999 -0.455919)
(0.025 0.228516 -0.455919)
(0.025 0.243348 -0.455919)
(0.025 0.257527 -0.455919)
(0.025 0.27108 -0.455919)
(0.025 0.284035 -0.455919)
(0.025 0.296419 -0.455919)
(0.025 0.308256 -0.455919)
(0.025 0.319572 -0.455919)
(0.025 0.330388 -0.455919)
(0.025 0.340727 -0.455919)
(0.025 0.35061 -0.455919)
(0.025 0.360057 -0.455919)
(0.025 0.369088 -0.455919)
(0.025 0.37772 -0.455919)
(0.025 0.385971 -0.455919)
(0.025 0.393859 -0.455919)
(0.025 0.401398 -0.455919)
(0.025 0.408605 -0.455919)
(0.025 0.415494 -0.455919)
(0.025 0.422079 -0.455919)
(0.025 0.428374 -0.455919)
(0.025 0.434391 -0.455919)
(0.025 0.440142 -0.455919)
(0.025 0.44564 -0.455919)
(0.025 0.450896 -0.455919)
(0.025 0.455919 -0.455919)
(0.025 0.460721 -0.455919)
(0.025 0.465312 -0.455919)
(0.025 0.469699 -0.455919)
(0.025 0.473893 -0.455919)
(0.025 0.477903 -0.455919)
(0.025 0.481735 -0.455919)
(0.025 0.485398 -0.455919)
(0.025 0.4889 -0.455919)
(0.025 0.492247 -0.455919)
(0.025 0.495447 -0.455919)
(0.025 0.498505 -0.455919)
(0.025 0.0124562 -0.450896)
(0.025 0.0368192 -0.450896)
(0.025 0.0601075 -0.450896)
(0.025 0.0823686 -0.450896)
(0.025 0.103648 -0.450896)
(0.025 0.123988 -0.450896)
(0.025 0.143432 -0.450896)
(0.025 0.162017 -0.450896)
(0.025 0.179783 -0.450896)
(0.025 0.196766 -0.450896)
(0.025 0.212999 -0.450896)
(0.025 0.228516 -0.450896)
(0.025 0.243348 -0.450896)
(0.025 0.257527 -0.450896)
(0.025 0.27108 -0.450896)
(0.025 0.284035 -0.450896)
(0.025 0.296419 -0.450896)
(0.025 0.308256 -0.450896)
(0.025 0.319572 -0.450896)
(0.025 0.330388 -0.450896)
(0.025 0.340727 -0.450896)
(0.025 0.35061 -0.450896)
(0.025 0.360057 -0.450896)
(0.025 0.369088 -0.450896)
(0.025 0.37772 -0.450896)
(0.025 0.385971 -0.450896)
(0.025 0.393859 -0.450896)
(0.025 0.401398 -0.450896)
(0.025 0.408605 -0.450896)
(0.025 0.415494 -0.450896)
(0.025 0.422079 -0.450896)
(0.025 0.428374 -0.450896)
(0.025 0.434391 -0.450896)
(0.025 0.440142 -0.450896)
(0.025 0.44564 -0.450896)
(0.025 0.450896 -0.450896)
(0.025 0.455919 -0.450896)
(0.025 0.460721 -0.450896)
(0.025 0.465312 -0.450896)
(0.025 0.469699 -0.450896)
(0.025 0.473893 -0.450896)
(0.025 0.477903 -0.450896)
(0.025 0.481735 -0.450896)
(0.025 0.485398 -0.450896)
(0.025 0.4889 -0.450896)
(0.025 0.492247 -0.450896)
(0.025 0.495447 -0.450896)
(0.025 0.498505 -0.450896)
(0.025 0.0124562 -0.44564)
(0.025 0.0368192 -0.44564)
(0.025 0.0601075 -0.44564)
(0.025 0.0823686 -0.44564)
(0.025 0.103648 -0.44564)
(0.025 0.123988 -0.44564)
(0.025 0.143432 -0.44564)
(0.025 0.162017 -0.44564)
(0.025 0.179783 -0.44564)
(0.025 0.196766 -0.44564)
(0.025 0.212999 -0.44564)
(0.025 0.228516 -0.44564)
(0.025 0.243348 -0.44564)
(0.025 0.257527 -0.44564)
(0.025 0.27108 -0.44564)
(0.025 0.284035 -0.44564)
(0.025 0.296419 -0.44564)
(0.025 0.308256 -0.44564)
(0.025 0.319572 -0.44564)
(0.025 0.330388 -0.44564)
(0.025 0.340727 -0.44564)
(0.025 0.35061 -0.44564)
(0.025 0.360057 -0.44564)
(0.025 0.369088 -0.44564)
(0.025 0.37772 -0.44564)
(0.025 0.385971 -0.44564)
(0.025 0.393859 -0.44564)
(0.025 0.401398 -0.44564)
(0.025 0.408605 -0.44564)
(0.025 0.415494 -0.44564)
(0.025 0.422079 -0.44564)
(0.025 0.428374 -0.44564)
(0.025 0.434391 -0.44564)
(0.025 0.440142 -0.44564)
(0.025 0.44564 -0.44564)
(0.025 0.450896 -0.44564)
(0.025 0.455919 -0.44564)
(0.025 0.460721 -0.44564)
(0.025 0.465312 -0.44564)
(0.025 0.469699 -0.44564)
(0.025 0.473893 -0.44564)
(0.025 0.477903 -0.44564)
(0.025 0.481735 -0.44564)
(0.025 0.485398 -0.44564)
(0.025 0.4889 -0.44564)
(0.025 0.492247 -0.44564)
(0.025 0.495447 -0.44564)
(0.025 0.498505 -0.44564)
(0.025 0.0124562 -0.440142)
(0.025 0.0368192 -0.440142)
(0.025 0.0601075 -0.440142)
(0.025 0.0823686 -0.440142)
(0.025 0.103648 -0.440142)
(0.025 0.123988 -0.440142)
(0.025 0.143432 -0.440142)
(0.025 0.162017 -0.440142)
(0.025 0.179783 -0.440142)
(0.025 0.196766 -0.440142)
(0.025 0.212999 -0.440142)
(0.025 0.228516 -0.440142)
(0.025 0.243348 -0.440142)
(0.025 0.257527 -0.440142)
(0.025 0.27108 -0.440142)
(0.025 0.284035 -0.440142)
(0.025 0.296419 -0.440142)
(0.025 0.308256 -0.440142)
(0.025 0.319572 -0.440142)
(0.025 0.330388 -0.440142)
(0.025 0.340727 -0.440142)
(0.025 0.35061 -0.440142)
(0.025 0.360057 -0.440142)
(0.025 0.369088 -0.440142)
(0.025 0.37772 -0.440142)
(0.025 0.385971 -0.440142)
(0.025 0.393859 -0.440142)
(0.025 0.401398 -0.440142)
(0.025 0.408605 -0.440142)
(0.025 0.415494 -0.440142)
(0.025 0.422079 -0.440142)
(0.025 0.428374 -0.440142)
(0.025 0.434391 -0.440142)
(0.025 0.440142 -0.440142)
(0.025 0.44564 -0.440142)
(0.025 0.450896 -0.440142)
(0.025 0.455919 -0.440142)
(0.025 0.460721 -0.440142)
(0.025 0.465312 -0.440142)
(0.025 0.469699 -0.440142)
(0.025 0.473893 -0.440142)
(0.025 0.477903 -0.440142)
(0.025 0.481735 -0.440142)
(0.025 0.485398 -0.440142)
(0.025 0.4889 -0.440142)
(0.025 0.492247 -0.440142)
(0.025 0.495447 -0.440142)
(0.025 0.498505 -0.440142)
(0.025 0.0124562 -0.434391)
(0.025 0.0368192 -0.434391)
(0.025 0.0601075 -0.434391)
(0.025 0.0823686 -0.434391)
(0.025 0.103648 -0.434391)
(0.025 0.123988 -0.434391)
(0.025 0.143432 -0.434391)
(0.025 0.162017 -0.434391)
(0.025 0.179783 -0.434391)
(0.025 0.196766 -0.434391)
(0.025 0.212999 -0.434391)
(0.025 0.228516 -0.434391)
(0.025 0.243348 -0.434391)
(0.025 0.257527 -0.434391)
(0.025 0.27108 -0.434391)
(0.025 0.284035 -0.434391)
(0.025 0.296419 -0.434391)
(0.025 0.308256 -0.434391)
(0.025 0.319572 -0.434391)
(0.025 0.330388 -0.434391)
(0.025 0.340727 -0.434391)
(0.025 0.35061 -0.434391)
(0.025 0.360057 -0.434391)
(0.025 0.369088 -0.434391)
(0.025 0.37772 -0.434391)
(0.025 0.385971 -0.434391)
(0.025 0.393859 -0.434391)
(0.025 0.401398 -0.434391)
(0.025 0.408605 -0.434391)
(0.025 0.415494 -0.434391)
(0.025 0.422079 -0.434391)
(0.025 0.428374 -0.434391)
(0.025 0.434391 -0.434391)
(0.025 0.440142 -0.434391)
(0.025 0.44564 -0.434391)
(0.025 0.450896 -0.434391)
(0.025 0.455919 -0.434391)
(0.025 0.460721 -0.434391)
(0.025 0.465312 -0.434391)
(0.025 0.469699 -0.434391)
(0.025 0.473893 -0.434391)
(0.025 0.477903 -0.434391)
(0.025 0.481735 -0.434391)
(0.025 0.485398 -0.434391)
(0.025 0.4889 -0.434391)
(0.025 0.492247 -0.434391)
(0.025 0.495447 -0.434391)
(0.025 0.498505 -0.434391)
(0.025 0.0124562 -0.428374)
(0.025 0.0368192 -0.428374)
(0.025 0.0601075 -0.428374)
(0.025 0.0823686 -0.428374)
(0.025 0.103648 -0.428374)
(0.025 0.123988 -0.428374)
(0.025 0.143432 -0.428374)
(0.025 0.162017 -0.428374)
(0.025 0.179783 -0.428374)
(0.025 0.196766 -0.428374)
(0.025 0.212999 -0.428374)
(0.025 0.228516 -0.428374)
(0.025 0.243348 -0.428374)
(0.025 0.257527 -0.428374)
(0.025 0.27108 -0.428374)
(0.025 0.284035 -0.428374)
(0.025 0.296419 -0.428374)
(0.025 0.308256 -0.428374)
(0.025 0.319572 -0.428374)
(0.025 0.330388 -0.428374)
(0.025 0.340727 -0.428374)
(0.025 0.35061 -0.428374)
(0.025 0.360057 -0.428374)
(0.025 0.369088 -0.428374)
(0.025 0.37772 -0.428374)
(0.025 0.385971 -0.428374)
(0.025 0.393859 -0.428374)
(0.025 0.401398 -0.428374)
(0.025 0.408605 -0.428374)
(0.025 0.415494 -0.428374)
(0.025 0.422079 -0.428374)
(0.025 0.428374 -0.428374)
(0.025 0.434391 -0.428374)
(0.025 0.440142 -0.428374)
(0.025 0.44564 -0.428374)
(0.025 0.450896 -0.428374)
(0.025 0.455919 -0.428374)
(0.025 0.460721 -0.428374)
(0.025 0.465312 -0.428374)
(0.025 0.469699 -0.428374)
(0.025 0.473893 -0.428374)
(0.025 0.477903 -0.428374)
(0.025 0.481735 -0.428374)
(0.025 0.485398 -0.428374)
(0.025 0.4889 -0.428374)
(0.025 0.492247 -0.428374)
(0.025 0.495447 -0.428374)
(0.025 0.498505 -0.428374)
(0.025 0.0124562 -0.422079)
(0.025 0.0368192 -0.422079)
(0.025 0.0601075 -0.422079)
(0.025 0.0823686 -0.422079)
(0.025 0.103648 -0.422079)
(0.025 0.123988 -0.422079)
(0.025 0.143432 -0.422079)
(0.025 0.162017 -0.422079)
(0.025 0.179783 -0.422079)
(0.025 0.196766 -0.422079)
(0.025 0.212999 -0.422079)
(0.025 0.228516 -0.422079)
(0.025 0.243348 -0.422079)
(0.025 0.257527 -0.422079)
(0.025 0.27108 -0.422079)
(0.025 0.284035 -0.422079)
(0.025 0.296419 -0.422079)
(0.025 0.308256 -0.422079)
(0.025 0.319572 -0.422079)
(0.025 0.330388 -0.422079)
(0.025 0.340727 -0.422079)
(0.025 0.35061 -0.422079)
(0.025 0.360057 -0.422079)
(0.025 0.369088 -0.422079)
(0.025 0.37772 -0.422079)
(0.025 0.385971 -0.422079)
(0.025 0.393859 -0.422079)
(0.025 0.401398 -0.422079)
(0.025 0.408605 -0.422079)
(0.025 0.415494 -0.422079)
(0.025 0.422079 -0.422079)
(0.025 0.428374 -0.422079)
(0.025 0.434391 -0.422079)
(0.025 0.440142 -0.422079)
(0.025 0.44564 -0.422079)
(0.025 0.450896 -0.422079)
(0.025 0.455919 -0.422079)
(0.025 0.460721 -0.422079)
(0.025 0.465312 -0.422079)
(0.025 0.469699 -0.422079)
(0.025 0.473893 -0.422079)
(0.025 0.477903 -0.422079)
(0.025 0.481735 -0.422079)
(0.025 0.485398 -0.422079)
(0.025 0.4889 -0.422079)
(0.025 0.492247 -0.422079)
(0.025 0.495447 -0.422079)
(0.025 0.498505 -0.422079)
(0.025 0.0124562 -0.415494)
(0.025 0.0368192 -0.415494)
(0.025 0.0601075 -0.415494)
(0.025 0.0823686 -0.415494)
(0.025 0.103648 -0.415494)
(0.025 0.123988 -0.415494)
(0.025 0.143432 -0.415494)
(0.025 0.162017 -0.415494)
(0.025 0.179783 -0.415494)
(0.025 0.196766 -0.415494)
(0.025 0.212999 -0.415494)
(0.025 0.228516 -0.415494)
(0.025 0.243348 -0.415494)
(0.025 0.257527 -0.415494)
(0.025 0.27108 -0.415494)
(0.025 0.284035 -0.415494)
(0.025 0.296419 -0.415494)
(0.025 0.308256 -0.415494)
(0.025 0.319572 -0.415494)
(0.025 0.330388 -0.415494)
(0.025 0.340727 -0.415494)
(0.025 0.35061 -0.415494)
(0.025 0.360057 -0.415494)
(0.025 0.369088 -0.415494)
(0.025 0.37772 -0.415494)
(0.025 0.385971 -0.415494)
(0.025 0.393859 -0.415494)
(0.025 0.401398 -0.415494)
(0.025 0.408605 -0.415494)
(0.025 0.415494 -0.415494)
(0.025 0.422079 -0.415494)
(0.025 0.428374 -0.415494)
(0.025 0.434391 -0.415494)
(0.025 0.440142 -0.415494)
(0.025 0.44564 -0.415494)
(0.025 0.450896 -0.415494)
(0.025 0.455919 -0.415494)
(0.025 0.460721 -0.415494)
(0.025 0.465312 -0.415494)
(0.025 0.469699 -0.415494)
(0.025 0.473893 -0.415494)
(0.025 0.477903 -0.415494)
(0.025 0.481735 -0.415494)
(0.025 0.485398 -0.415494)
(0.025 0.4889 -0.415494)
(0.025 0.492247 -0.415494)
(0.025 0.495447 -0.415494)
(0.025 0.498505 -0.415494)
(0.025 0.0124562 -0.408605)
(0.025 0.0368192 -0.408605)
(0.025 0.0601075 -0.408605)
(0.025 0.0823686 -0.408605)
(0.025 0.103648 -0.408605)
(0.025 0.123988 -0.408605)
(0.025 0.143432 -0.408605)
(0.025 0.162017 -0.408605)
(0.025 0.179783 -0.408605)
(0.025 0.196766 -0.408605)
(0.025 0.212999 -0.408605)
(0.025 0.228516 -0.408605)
(0.025 0.243348 -0.408605)
(0.025 0.257527 -0.408605)
(0.025 0.27108 -0.408605)
(0.025 0.284035 -0.408605)
(0.025 0.296419 -0.408605)
(0.025 0.308256 -0.408605)
(0.025 0.319572 -0.408605)
(0.025 0.330388 -0.408605)
(0.025 0.340727 -0.408605)
(0.025 0.35061 -0.408605)
(0.025 0.360057 -0.408605)
(0.025 0.369088 -0.408605)
(0.025 0.37772 -0.408605)
(0.025 0.385971 -0.408605)
(0.025 0.393859 -0.408605)
(0.025 0.401398 -0.408605)
(0.025 0.408605 -0.408605)
(0.025 0.415494 -0.408605)
(0.025 0.422079 -0.408605)
(0.025 0.428374 -0.408605)
(0.025 0.434391 -0.408605)
(0.025 0.440142 -0.408605)
(0.025 0.44564 -0.408605)
(0.025 0.450896 -0.408605)
(0.025 0.455919 -0.408605)
(0.025 0.460721 -0.408605)
(0.025 0.465312 -0.408605)
(0.025 0.469699 -0.408605)
(0.025 0.473893 -0.408605)
(0.025 0.477903 -0.408605)
(0.025 0.481735 -0.408605)
(0.025 0.485398 -0.408605)
(0.025 0.4889 -0.408605)
(0.025 0.492247 -0.408605)
(0.025 0.495447 -0.408605)
(0.025 0.498505 -0.408605)
(0.025 0.0124562 -0.401398)
(0.025 0.0368192 -0.401398)
(0.025 0.0601075 -0.401398)
(0.025 0.0823686 -0.401398)
(0.025 0.103648 -0.401398)
(0.025 0.123988 -0.401398)
(0.025 0.143432 -0.401398)
(0.025 0.162017 -0.401398)
(0.025 0.179783 -0.401398)
(0.025 0.196766 -0.401398)
(0.025 0.212999 -0.401398)
(0.025 0.228516 -0.401398)
(0.025 0.243348 -0.401398)
(0.025 0.257527 -0.401398)
(0.025 0.27108 -0.401398)
(0.025 0.284035 -0.401398)
(0.025 0.296419 -0.401398)
(0.025 0.308256 -0.401398)
(0.025 0.319572 -0.401398)
(0.025 0.330388 -0.401398)
(0.025 0.340727 -0.401398)
(0.025 0.35061 -0.401398)
(0.025 0.360057 -0.401398)
(0.025 0.369088 -0.401398)
(0.025 0.37772 -0.401398)
(0.025 0.385971 -0.401398)
(0.025 0.393859 -0.401398)
(0.025 0.401398 -0.401398)
(0.025 0.408605 -0.401398)
(0.025 0.415494 -0.401398)
(0.025 0.422079 -0.401398)
(0.025 0.428374 -0.401398)
(0.025 0.434391 -0.401398)
(0.025 0.440142 -0.401398)
(0.025 0.44564 -0.401398)
(0.025 0.450896 -0.401398)
(0.025 0.455919 -0.401398)
(0.025 0.460721 -0.401398)
(0.025 0.465312 -0.401398)
(0.025 0.469699 -0.401398)
(0.025 0.473893 -0.401398)
(0.025 0.477903 -0.401398)
(0.025 0.481735 -0.401398)
(0.025 0.485398 -0.401398)
(0.025 0.4889 -0.401398)
(0.025 0.492247 -0.401398)
(0.025 0.495447 -0.401398)
(0.025 0.498505 -0.401398)
(0.025 0.0124562 -0.393859)
(0.025 0.0368192 -0.393859)
(0.025 0.0601075 -0.393859)
(0.025 0.0823686 -0.393859)
(0.025 0.103648 -0.393859)
(0.025 0.123988 -0.393859)
(0.025 0.143432 -0.393859)
(0.025 0.162017 -0.393859)
(0.025 0.179783 -0.393859)
(0.025 0.196766 -0.393859)
(0.025 0.212999 -0.393859)
(0.025 0.228516 -0.393859)
(0.025 0.243348 -0.393859)
(0.025 0.257527 -0.393859)
(0.025 0.27108 -0.393859)
(0.025 0.284035 -0.393859)
(0.025 0.296419 -0.393859)
(0.025 0.308256 -0.393859)
(0.025 0.319572 -0.393859)
(0.025 0.330388 -0.393859)
(0.025 0.340727 -0.393859)
(0.025 0.35061 -0.393859)
(0.025 0.360057 -0.393859)
(0.025 0.369088 -0.393859)
(0.025 0.37772 -0.393859)
(0.025 0.385971 -0.393859)
(0.025 0.393859 -0.393859)
(0.025 0.401398 -0.393859)
(0.025 0.408605 -0.393859)
(0.025 0.415494 -0.393859)
(0.025 0.422079 -0.393859)
(0.025 0.428374 -0.393859)
(0.025 0.434391 -0.393859)
(0.025 0.440142 -0.393859)
(0.025 0.44564 -0.393859)
(0.025 0.450896 -0.393859)
(0.025 0.455919 -0.393859)
(0.025 0.460721 -0.393859)
(0.025 0.465312 -0.393859)
(0.025 0.469699 -0.393859)
(0.025 0.473893 -0.393859)
(0.025 0.477903 -0.393859)
(0.025 0.481735 -0.393859)
(0.025 0.485398 -0.393859)
(0.025 0.4889 -0.393859)
(0.025 0.492247 -0.393859)
(0.025 0.495447 -0.393859)
(0.025 0.498505 -0.393859)
(0.025 0.0124562 -0.385971)
(0.025 0.0368192 -0.385971)
(0.025 0.0601075 -0.385971)
(0.025 0.0823686 -0.385971)
(0.025 0.103648 -0.385971)
(0.025 0.123988 -0.385971)
(0.025 0.143432 -0.385971)
(0.025 0.162017 -0.385971)
(0.025 0.179783 -0.385971)
(0.025 0.196766 -0.385971)
(0.025 0.212999 -0.385971)
(0.025 0.228516 -0.385971)
(0.025 0.243348 -0.385971)
(0.025 0.257527 -0.385971)
(0.025 0.27108 -0.385971)
(0.025 0.284035 -0.385971)
(0.025 0.296419 -0.385971)
(0.025 0.308256 -0.385971)
(0.025 0.319572 -0.385971)
(0.025 0.330388 -0.385971)
(0.025 0.340727 -0.385971)
(0.025 0.35061 -0.385971)
(0.025 0.360057 -0.385971)
(0.025 0.369088 -0.385971)
(0.025 0.37772 -0.385971)
(0.025 0.385971 -0.385971)
(0.025 0.393859 -0.385971)
(0.025 0.401398 -0.385971)