/*--------------------------------*- C++ -*----------------------------------*\
| =========                 |                                                 |
| \\      /  F ield         | OpenFOAM: The Open Source CFD Toolbox           |
|  \\    /   O peration     | Version:  2112                                  |
|   \\  /    A nd           | Website:  www.openfoam.com                      |
|    \\/     M anipulation  |                                                 |
\*---------------------------------------------------------------------------*/
FoamFile
{
    version     2.0;
    format      ascii;
    arch        "LSB;label=32;scalar=64";
    class       volSymmTensorField;
    location    "3612";
    object      turbulenceProperties:R;
}
// * * * * * * * * * * * * * * * * * * * * * * * * * * * * * * * * * * * * * //

dimensions      [0 2 -2 0 0 0 0];

internalField   nonuniform List<symmTensor> 
2304
(
(1.30774e-05 5.7639e-12 -1.3569e-07 1.30774e-05 2.19368e-22 1.30774e-05)
(1.30407e-05 1.70753e-11 -1.35122e-07 1.30407e-05 2.79474e-22 1.30407e-05)
(1.29718e-05 2.80184e-11 -1.34056e-07 1.29718e-05 8.49364e-23 1.29718e-05)
(1.28741e-05 3.86728e-11 -1.32553e-07 1.28741e-05 5.82547e-23 1.28741e-05)
(1.27509e-05 4.91059e-11 -1.30663e-07 1.27509e-05 5.77467e-23 1.27509e-05)
(1.26047e-05 5.93567e-11 -1.28432e-07 1.26047e-05 5.32546e-23 1.26047e-05)
(1.24379e-05 6.94492e-11 -1.259e-07 1.24379e-05 4.5102e-23 1.24379e-05)
(1.22523e-05 7.94632e-11 -1.23104e-07 1.22523e-05 6.02113e-23 1.22523e-05)
(1.20496e-05 8.93903e-11 -1.20074e-07 1.20496e-05 5.79661e-23 1.20496e-05)
(1.18313e-05 9.92772e-11 -1.16839e-07 1.18313e-05 5.90922e-23 1.18313e-05)
(1.15989e-05 1.09129e-10 -1.13424e-07 1.15989e-05 6.04221e-23 1.15989e-05)
(1.13534e-05 1.18942e-10 -1.09854e-07 1.13534e-05 5.37813e-23 1.13534e-05)
(1.10959e-05 1.28729e-10 -1.06149e-07 1.10959e-05 5.36727e-23 1.10959e-05)
(1.08273e-05 1.38515e-10 -1.0233e-07 1.08273e-05 4.86691e-23 1.08273e-05)
(1.05485e-05 1.48294e-10 -9.84131e-08 1.05485e-05 4.35417e-23 1.05485e-05)
(1.02602e-05 1.5807e-10 -9.44161e-08 1.02602e-05 3.57838e-23 1.02602e-05)
(9.963e-06 1.67912e-10 -9.03531e-08 9.963e-06 2.73137e-23 9.963e-06)
(9.65747e-06 1.77815e-10 -8.62367e-08 9.65747e-06 2.23163e-23 9.65747e-06)
(9.34387e-06 1.87873e-10 -8.20774e-08 9.34387e-06 2.47818e-23 9.34387e-06)
(9.02227e-06 1.98248e-10 -7.78827e-08 9.02227e-06 2.14461e-23 9.02227e-06)
(8.6924e-06 2.09059e-10 -7.36563e-08 8.6924e-06 2.1218e-23 8.6924e-06)
(8.35373e-06 2.20107e-10 -6.93987e-08 8.35373e-06 2.11095e-23 8.35373e-06)
(8.00633e-06 2.31086e-10 -6.51194e-08 8.00633e-06 1.631e-23 8.00633e-06)
(7.65087e-06 2.41885e-10 -6.08343e-08 7.65087e-06 1.31734e-23 7.65087e-06)
(7.28753e-06 2.52548e-10 -5.65555e-08 7.28753e-06 1.17758e-23 7.28753e-06)
(6.91633e-06 2.63094e-10 -5.22916e-08 6.91633e-06 1.15204e-23 6.91633e-06)
(6.53718e-06 2.73259e-10 -4.8052e-08 6.53718e-06 9.58374e-24 6.53718e-06)
(6.15053e-06 2.82523e-10 -4.38529e-08 6.15053e-06 6.97009e-24 6.15053e-06)
(5.75737e-06 2.90497e-10 -3.97159e-08 5.75737e-06 6.32599e-24 5.75737e-06)
(5.35875e-06 2.97033e-10 -3.56627e-08 5.35875e-06 6.13051e-24 5.35875e-06)
(4.95569e-06 3.01873e-10 -3.17142e-08 4.95569e-06 5.31245e-24 4.95569e-06)
(4.54935e-06 3.04629e-10 -2.78929e-08 4.54935e-06 4.41527e-24 4.54935e-06)
(4.14122e-06 3.04774e-10 -2.42226e-08 4.14122e-06 3.85477e-24 4.14122e-06)
(3.73318e-06 3.01811e-10 -2.073e-08 3.73318e-06 3.26076e-24 3.73318e-06)
(3.32763e-06 2.95191e-10 -1.74431e-08 3.32763e-06 2.78763e-24 3.32763e-06)
(2.92758e-06 2.84341e-10 -1.43919e-08 2.92758e-06 2.41295e-24 2.92758e-06)
(2.53669e-06 2.68849e-10 -1.1606e-08 2.53669e-06 1.86011e-24 2.53669e-06)
(2.15934e-06 2.48568e-10 -9.11342e-09 2.15934e-06 1.44121e-24 2.15934e-06)
(1.80043e-06 2.2378e-10 -6.93694e-09 1.80043e-06 1.09882e-24 1.80043e-06)
(1.46516e-06 1.95279e-10 -5.09104e-09 1.46516e-06 7.84175e-25 1.46516e-06)
(1.15848e-06 1.64402e-10 -3.57779e-09 1.15848e-06 5.20549e-25 1.15848e-06)
(8.84507e-07 1.32833e-10 -2.38504e-09 8.84507e-07 3.26498e-25 8.84507e-07)
(6.46055e-07 1.02276e-10 -1.48671e-09 6.46055e-07 1.92696e-25 6.46055e-07)
(4.44513e-07 7.41488e-11 -8.46213e-10 4.44513e-07 1.02647e-25 4.44513e-07)
(2.80132e-07 4.9456e-11 -4.21176e-10 2.80132e-07 4.6138e-26 2.80132e-07)
(1.5272e-07 2.88834e-11 -1.67724e-10 1.5272e-07 1.38313e-26 1.5272e-07)
(6.26491e-08 1.30543e-11 -4.27684e-11 6.26491e-08 1.8043e-27 6.26491e-08)
(1.31242e-08 3.22889e-12 -3.22889e-12 1.31242e-08 1.39185e-29 1.31242e-08)
(1.15507e-05 9.16747e-11 -7.00196e-07 1.15507e-05 1.69878e-22 1.15507e-05)
(1.15078e-05 2.71494e-10 -6.96643e-07 1.15078e-05 2.60055e-22 1.15078e-05)
(1.14274e-05 4.4481e-10 -6.89983e-07 1.14274e-05 1.01144e-22 1.14274e-05)
(1.13139e-05 6.12324e-10 -6.80614e-07 1.13139e-05 4.93428e-23 1.13139e-05)
(1.11715e-05 7.74969e-10 -6.68892e-07 1.11715e-05 5.80263e-23 1.11715e-05)
(1.10035e-05 9.33411e-10 -6.55129e-07 1.10035e-05 6.39973e-23 1.10035e-05)
(1.08131e-05 1.08795e-09 -6.39613e-07 1.08131e-05 5.56633e-23 1.08131e-05)
(1.06031e-05 1.23916e-09 -6.2259e-07 1.06031e-05 1.19896e-22 1.06031e-05)
(1.03759e-05 1.38733e-09 -6.0429e-07 1.03759e-05 1.21632e-22 1.03759e-05)
(1.01339e-05 1.5326e-09 -5.84921e-07 1.01339e-05 1.36739e-22 1.01339e-05)
(9.87887e-06 1.67538e-09 -5.64671e-07 9.87887e-06 1.52913e-22 9.87887e-06)
(9.61273e-06 1.8156e-09 -5.43711e-07 9.61273e-06 1.3935e-22 9.61273e-06)
(9.33713e-06 1.95316e-09 -5.22189e-07 9.33713e-06 1.44963e-22 9.33713e-06)
(9.0536e-06 2.08861e-09 -5.00256e-07 9.0536e-06 1.31973e-22 9.0536e-06)
(8.76333e-06 2.22206e-09 -4.78027e-07 8.76333e-06 1.16597e-22 8.76333e-06)
(8.4678e-06 2.35342e-09 -4.5562e-07 8.4678e-06 9.5896e-23 8.4678e-06)
(8.16787e-06 2.48332e-09 -4.33142e-07 8.16787e-06 6.94998e-23 8.16787e-06)
(7.8644e-06 2.61272e-09 -4.10663e-07 7.8644e-06 5.20902e-23 7.8644e-06)
(7.55813e-06 2.74264e-09 -3.88255e-07 7.55813e-06 6.30675e-23 7.55813e-06)
(7.24913e-06 2.87475e-09 -3.65963e-07 7.24913e-06 5.32515e-23 7.24913e-06)
(6.937e-06 3.01114e-09 -3.43777e-07 6.937e-06 5.49479e-23 6.937e-06)
(6.62003e-06 3.14919e-09 -3.21645e-07 6.62003e-06 5.62282e-23 6.62003e-06)
(6.29847e-06 3.28278e-09 -2.99609e-07 6.29847e-06 4.06611e-23 6.29847e-06)
(5.97434e-06 3.41078e-09 -2.77825e-07 5.97434e-06 3.27383e-23 5.97434e-06)
(5.64835e-06 3.53518e-09 -2.56357e-07 5.64835e-06 2.84384e-23 5.64835e-06)
(5.32012e-06 3.65582e-09 -2.35228e-07 5.32012e-06 2.90126e-23 5.32012e-06)
(4.98881e-06 3.76758e-09 -2.14438e-07 4.98881e-06 2.52516e-23 4.98881e-06)
(4.65489e-06 3.86335e-09 -1.9406e-07 4.65489e-06 1.56822e-23 4.65489e-06)
(4.32e-06 3.93927e-09 -1.74224e-07 4.32e-06 1.25361e-23 4.32e-06)
(3.98531e-06 3.99299e-09 -1.55032e-07 3.98531e-06 1.33535e-23 3.98531e-06)
(3.65141e-06 4.02093e-09 -1.36562e-07 3.65141e-06 1.13007e-23 3.65141e-06)
(3.31876e-06 4.01759e-09 -1.18883e-07 3.31876e-06 8.86325e-24 3.31876e-06)
(2.98791e-06 3.97636e-09 -1.02073e-07 2.98791e-06 8.57135e-24 2.98791e-06)
(2.65969e-06 3.88929e-09 -8.62209e-08 2.65969e-06 7.16206e-24 2.65969e-06)
(2.33525e-06 3.7477e-09 -7.14237e-08 2.33525e-06 5.81949e-24 2.33525e-06)
(2.01621e-06 3.54371e-09 -5.77889e-08 2.01621e-06 5.20037e-24 2.01621e-06)
(1.70489e-06 3.27117e-09 -4.54348e-08 1.70489e-06 3.87929e-24 1.70489e-06)
(1.40476e-06 2.92893e-09 -3.44883e-08 1.40476e-06 2.80067e-24 1.40476e-06)
(1.12073e-06 2.52428e-09 -2.50745e-08 1.12073e-06 2.0773e-24 1.12073e-06)
(8.59187e-07 2.07594e-09 -1.72942e-08 8.59187e-07 1.45091e-24 8.59187e-07)
(6.27409e-07 1.61435e-09 -1.11882e-08 6.27409e-07 8.47434e-25 6.27409e-07)
(4.32098e-07 1.17636e-09 -6.69859e-09 4.32098e-07 4.99906e-25 4.32098e-07)
(2.7731e-07 7.95286e-10 -3.64758e-09 2.7731e-07 2.56649e-25 2.7731e-07)
(1.63047e-07 4.9189e-10 -1.75983e-09 1.63047e-07 9.71036e-26 1.63047e-07)
(8.54927e-08 2.71883e-10 -7.19894e-10 8.54927e-08 3.7073e-26 8.54927e-08)
(3.8877e-08 1.31607e-10 -2.35254e-10 3.8877e-08 6.27983e-27 3.8877e-08)
(1.83777e-08 5.01937e-11 -5.01936e-11 1.83777e-08 1.4612e-27 1.83777e-08)
(6.26491e-08 4.27684e-11 -1.30543e-11 6.26491e-08 3.82879e-28 6.26491e-08)
(7.14567e-05 2.80411e-09 -1.23183e-05 7.14567e-05 -2.19614e-21 7.14567e-05)
(7.1182e-05 8.31589e-09 -1.22561e-05 7.1182e-05 1.8695e-21 7.1182e-05)
(7.06673e-05 1.36354e-08 -1.21394e-05 7.06673e-05 6.99682e-21 7.06673e-05)
(6.99413e-05 1.87723e-08 -1.19754e-05 6.99413e-05 5.25864e-21 6.99413e-05)
(6.903e-05 2.37559e-08 -1.17701e-05 6.903e-05 3.95344e-21 6.903e-05)
(6.79567e-05 2.85958e-08 -1.15289e-05 6.79567e-05 3.42275e-21 6.79567e-05)
(6.67407e-05 3.33343e-08 -1.12569e-05 6.67407e-05 2.79181e-21 6.67407e-05)
(6.5401e-05 3.79846e-08 -1.09585e-05 6.5401e-05 2.82227e-21 6.5401e-05)
(6.3953e-05 4.25313e-08 -1.06377e-05 6.3953e-05 2.2196e-21 6.3953e-05)
(6.24115e-05 4.69802e-08 -1.02979e-05 6.24115e-05 1.97702e-21 6.24115e-05)
(6.07897e-05 5.13434e-08 -9.94264e-06 6.07897e-05 1.73446e-21 6.07897e-05)
(5.90993e-05 5.56558e-08 -9.57485e-06 5.90993e-05 1.29984e-21 5.90993e-05)
(5.73515e-05 5.98725e-08 -9.19718e-06 5.73515e-05 1.17292e-21 5.73515e-05)
(5.55559e-05 6.40153e-08 -8.81216e-06 5.55559e-05 1.00589e-21 5.55559e-05)
(5.37215e-05 6.81245e-08 -8.42188e-06 5.37215e-05 9.18621e-22 5.37215e-05)
(5.18567e-05 7.21371e-08 -8.0286e-06 5.18567e-05 7.42561e-22 5.18567e-05)
(4.99681e-05 7.61214e-08 -7.63385e-06 4.99681e-05 4.93455e-22 4.99681e-05)
(4.80615e-05 8.01186e-08 -7.23922e-06 4.80615e-05 2.31208e-22 4.80615e-05)
(4.61411e-05 8.40831e-08 -6.84593e-06 4.61411e-05 3.89562e-22 4.61411e-05)
(4.42083e-05 8.81412e-08 -6.45455e-06 4.42083e-05 2.2436e-22 4.42083e-05)
(4.22599e-05 9.23328e-08 -6.0651e-06 4.22599e-05 2.3574e-22 4.22599e-05)
(4.02836e-05 9.65807e-08 -5.67608e-06 4.02836e-05 3.12201e-22 4.02836e-05)
(3.82811e-05 1.00682e-07 -5.28841e-06 3.82811e-05 9.75685e-23 3.82811e-05)
(3.62669e-05 1.04599e-07 -4.90498e-06 3.62669e-05 7.83027e-23 3.62669e-05)
(3.42459e-05 1.08427e-07 -4.5271e-06 3.42459e-05 1.05558e-22 3.42459e-05)
(3.22152e-05 1.12127e-07 -4.15505e-06 3.22152e-05 1.34339e-22 3.22152e-05)
(3.01685e-05 1.15561e-07 -3.78854e-06 3.01685e-05 1.67691e-22 3.01685e-05)
(2.81083e-05 1.1849e-07 -3.42884e-06 2.81083e-05 5.73234e-23 2.81083e-05)
(2.60463e-05 1.20794e-07 -3.07848e-06 2.60463e-05 -1.18782e-24 2.60463e-05)
(2.39899e-05 1.22406e-07 -2.73929e-06 2.39899e-05 5.58678e-23 2.39899e-05)
(2.19423e-05 1.23218e-07 -2.41263e-06 2.19423e-05 6.06567e-23 2.19423e-05)
(1.99056e-05 1.23065e-07 -2.09965e-06 1.99056e-05 3.46455e-23 1.99056e-05)
(1.78822e-05 1.21715e-07 -1.80167e-06 1.78822e-05 3.51047e-23 1.78822e-05)
(1.58764e-05 1.18916e-07 -1.52019e-06 1.58764e-05 1.70246e-23 1.58764e-05)
(1.38941e-05 1.14401e-07 -1.25697e-06 1.38941e-05 3.71501e-24 1.38941e-05)
(1.19438e-05 1.07895e-07 -1.01391e-06 1.19438e-05 1.46334e-23 1.19438e-05)
(1.0039e-05 9.919e-08 -7.93204e-07 1.0039e-05 1.90505e-23 1.0039e-05)
(8.20073e-06 8.82289e-08 -5.97312e-07 8.20073e-06 1.13383e-23 8.20073e-06)
(6.46005e-06 7.52291e-08 -4.28814e-07 6.46005e-06 6.22508e-24 6.46005e-06)
(4.85929e-06 6.08093e-08 -2.89959e-07 4.85929e-06 5.59749e-24 4.85929e-06)
(3.44849e-06 4.60059e-08 -1.81931e-07 3.44849e-06 2.76372e-24 3.44849e-06)
(2.27489e-06 3.21008e-08 -1.03929e-07 2.27489e-06 2.46076e-24 2.27489e-06)
(1.36759e-06 2.02571e-08 -5.26167e-08 1.36759e-06 1.58987e-24 1.36759e-06)
(7.26187e-07 1.11604e-08 -2.2516e-08 7.26187e-07 6.68483e-25 7.26187e-07)
(3.21532e-07 4.92376e-09 -7.31966e-09 3.21532e-07 1.59173e-25 3.21532e-07)
(1.077e-07 1.37585e-09 -1.37585e-09 1.077e-07 -3.67814e-26 1.077e-07)
(3.8877e-08 2.35254e-10 -1.31607e-10 3.8877e-08 -2.7571e-27 3.8877e-08)
(1.5272e-07 1.67724e-10 -2.88833e-11 1.5272e-07 -4.24003e-27 1.5272e-07)
(0.000251811 2.67816e-08 -7.83714e-05 0.000251811 -4.38714e-20 0.000251811)
(0.000250899 7.9303e-08 -7.80203e-05 0.000250899 -4.10015e-20 0.000250899)
(0.000249185 1.29968e-07 -7.73622e-05 0.000249185 9.33157e-21 0.000249185)
(0.000246768 1.79222e-07 -7.64358e-05 0.000246768 8.28633e-21 0.000246768)
(0.000243731 2.27236e-07 -7.52728e-05 0.000243731 4.35299e-21 0.000243731)
(0.000240148 2.74344e-07 -7.39028e-05 0.000240148 4.12617e-21 0.000240148)
(0.000236085 3.20592e-07 -7.23519e-05 0.000236085 3.56778e-21 0.000236085)
(0.000231599 3.66137e-07 -7.06448e-05 0.000231599 3.68585e-21 0.000231599)
(0.000226742 4.11308e-07 -6.88014e-05 0.000226742 1.14198e-21 0.000226742)
(0.000221562 4.55966e-07 -6.6841e-05 0.000221562 1.194e-21 0.000221562)
(0.0002161 5.00132e-07 -6.47798e-05 0.0002161 1.08464e-21 0.0002161)
(0.000210395 5.44003e-07 -6.26351e-05 0.000210395 1.14294e-21 0.000210395)
(0.000204482 5.87649e-07 -6.04207e-05 0.000204482 8.49e-22 0.000204482)
(0.000198393 6.31177e-07 -5.81488e-05 0.000198393 3.6252e-22 0.000198393)
(0.000192157 6.74378e-07 -5.58325e-05 0.000192157 4.93907e-22 0.000192157)
(0.000185801 7.17542e-07 -5.34838e-05 0.000185801 -2.29607e-22 0.000185801)
(0.000179347 7.60921e-07 -5.11094e-05 0.000179347 4.78828e-24 0.000179347)
(0.000172813 8.04322e-07 -4.87205e-05 0.000172813 -1.42818e-21 0.000172813)
(0.000166213 8.48477e-07 -4.6322e-05 0.000166213 -7.13512e-22 0.000166213)
(0.000159552 8.93884e-07 -4.39171e-05 0.000159552 -1.08091e-21 0.000159552)
(0.000152817 9.41272e-07 -4.15058e-05 0.000152817 -5.62972e-22 0.000152817)
(0.000145961 9.89998e-07 -3.90754e-05 0.000145961 2.07921e-22 0.000145961)
(0.000138988 1.03778e-06 -3.66316e-05 0.000138988 -1.04818e-21 0.000138988)
(0.00013195 1.08428e-06 -3.41931e-05 0.00013195 -8.91999e-22 0.00013195)
(0.000124865 1.13013e-06 -3.17682e-05 0.000124865 -5.16797e-22 0.000124865)
(0.00011772 1.17574e-06 -2.93573e-05 0.00011772 -4.34763e-22 0.00011772)
(0.000110488 1.21957e-06 -2.69571e-05 0.000110488 4.28064e-23 0.000110488)
(0.000103178 1.25844e-06 -2.45754e-05 0.000103178 -5.07047e-22 0.000103178)
(9.58313e-05 1.29111e-06 -2.22302e-05 9.58313e-05 -9.67809e-22 9.58313e-05)
(8.8474e-05 1.31688e-06 -1.99341e-05 8.8474e-05 -4.82451e-22 8.8474e-05)
(8.11167e-05 1.33451e-06 -1.76964e-05 8.11167e-05 -1.65548e-24 8.11167e-05)
(7.37653e-05 1.34185e-06 -1.55263e-05 7.37653e-05 2.07033e-22 7.37653e-05)
(6.64283e-05 1.33644e-06 -1.34335e-05 6.64283e-05 -4.69803e-23 6.64283e-05)
(5.91193e-05 1.31507e-06 -1.14302e-05 5.91193e-05 -3.20167e-22 5.91193e-05)
(5.18597e-05 1.27424e-06 -9.53099e-06 5.18597e-05 -3.32433e-22 5.18597e-05)
(4.46802e-05 1.21063e-06 -7.752e-06 4.46802e-05 -1.65543e-22 4.46802e-05)
(3.76289e-05 1.12115e-06 -6.11256e-06 3.76289e-05 -1.36891e-23 3.76289e-05)
(3.07835e-05 1.00425e-06 -4.63519e-06 3.07835e-05 1.15757e-23 3.07835e-05)
(2.42613e-05 8.61347e-07 -3.34483e-06 2.42613e-05 -2.08553e-23 2.42613e-05)
(1.82257e-05 6.98553e-07 -2.26582e-06 1.82257e-05 -1.8365e-24 1.82257e-05)
(1.28775e-05 5.27418e-07 -1.41572e-06 1.28775e-05 -1.01948e-23 1.28775e-05)
(8.4148e-06 3.63341e-07 -7.96487e-07 8.4148e-06 -1.50213e-24 8.4148e-06)
(4.96981e-06 2.21258e-07 -3.8813e-07 4.96981e-06 8.7859e-24 4.96981e-06)
(2.557e-06 1.11422e-07 -1.51465e-07 2.557e-06 3.66706e-24 2.557e-06)
(1.07e-06 3.96099e-08 -3.96098e-08 1.07e-06 -2.04588e-25 1.07e-06)
(3.21532e-07 7.31966e-09 -4.92375e-09 3.21532e-07 -3.96958e-25 3.21532e-07)
(8.54927e-08 7.19894e-10 -2.71883e-10 8.54927e-08 -1.51145e-26 8.54927e-08)
(2.80132e-07 4.21176e-10 -4.9456e-11 2.80132e-07 -1.31827e-26 2.80132e-07)
(0.000553856 1.10012e-07 -0.000228139 0.000553856 -1.74354e-19 0.000553856)
(0.000552111 3.2631e-07 -0.000227317 0.000552111 -1.9679e-19 0.000552111)
(0.000548831 5.35404e-07 -0.000225774 0.000548831 -1.94705e-20 0.000548831)
(0.000544197 7.39737e-07 -0.00022359 0.000544197 -4.5111e-21 0.000544197)
(0.000538365 9.41333e-07 -0.000220847 0.000538365 -8.38899e-21 0.000538365)
(0.000531468 1.14038e-06 -0.000217597 0.000531468 -9.51921e-21 0.000531468)
(0.000523625 1.33784e-06 -0.000213909 0.000523625 -7.03058e-21 0.000523625)
(0.00051494 1.53505e-06 -0.00020982 0.00051494 -6.08475e-21 0.00051494)
(0.000505505 1.7327e-06 -0.000205381 0.000505505 -1.29206e-20 0.000505505)
(0.000495405 1.93174e-06 -0.000200633 0.000495405 -1.33352e-20 0.000495405)
(0.000484712 2.13175e-06 -0.000195603 0.000484712 -1.07816e-20 0.000484712)
(0.000473495 2.33351e-06 -0.000190331 0.000473495 -6.2969e-21 0.000473495)
(0.000461817 2.53832e-06 -0.000184843 0.000461817 -6.83854e-21 0.000461817)
(0.000449733 2.74555e-06 -0.000179168 0.000449733 -8.11227e-21 0.000449733)
(0.000437293 2.95506e-06 -0.000173329 0.000437293 -6.70427e-21 0.000437293)
(0.000424547 3.16903e-06 -0.000167347 0.000424547 -6.89156e-21 0.000424547)
(0.000411532 3.3873e-06 -0.000161246 0.000411532 -2.6002e-21 0.000411532)
(0.00039828 3.61107e-06 -0.000155041 0.00039828 -8.24325e-21 0.00039828)
(0.000384815 3.84296e-06 -0.000148739 0.000384815 -9.70304e-21 0.000384815)
(0.000371135 4.08444e-06 -0.000142352 0.000371135 -7.07585e-21 0.000371135)
(0.000357213 4.34124e-06 -0.000135867 0.000357213 -4.76837e-21 0.000357213)
(0.000342929 4.6101e-06 -0.00012924 0.000342929 -4.25754e-21 0.000342929)
(0.000328277 4.87979e-06 -0.00012247 0.000328277 -6.19485e-21 0.000328277)
(0.000313373 5.15033e-06 -0.000115619 0.000313373 -4.56091e-21 0.000313373)
(0.000298242 5.4261e-06 -0.0001087 0.000298242 -3.25678e-21 0.000298242)
(0.000282849 5.70875e-06 -0.000101709 0.000282849 -4.231e-21 0.000282849)
(0.000267111 5.99089e-06 -9.4618e-05 0.000267111 -3.68883e-21 0.000267111)
(0.00025103 6.25669e-06 -8.74442e-05 0.00025103 -4.28337e-21 0.00025103)
(0.000234697 6.49894e-06 -8.02392e-05 0.000234697 -5.54191e-21 0.000234697)
(0.00021816 6.71501e-06 -7.30393e-05 0.00021816 -2.57956e-21 0.00021816)
(0.00020143 6.89579e-06 -6.58666e-05 0.00020143 -4.56021e-22 0.00020143)
(0.000184506 7.03028e-06 -5.8747e-05 0.000184506 -6.22861e-22 0.000184506)
(0.000167391 7.10293e-06 -5.17062e-05 0.000167391 -1.24337e-21 0.000167391)
(0.000150107 7.0926e-06 -4.4788e-05 0.000150107 -1.53652e-21 0.000150107)
(0.000132691 6.97822e-06 -3.80432e-05 0.000132691 -1.42032e-21 0.000132691)
(0.000115207 6.73519e-06 -3.15357e-05 0.000115207 -1.02786e-21 0.000115207)
(9.7758e-05 6.3384e-06 -2.53455e-05 9.7758e-05 -6.73308e-22 9.7758e-05)
(8.05353e-05 5.76868e-06 -1.95774e-05 8.05353e-05 -2.03944e-22 8.05353e-05)
(6.38384e-05 5.02015e-06 -1.43594e-05 6.38384e-05 -3.93068e-23 6.38384e-05)
(4.81163e-05 4.11341e-06 -9.83622e-06 4.81163e-05 -9.4411e-24 4.81163e-05)
(3.39617e-05 3.10672e-06 -6.14807e-06 3.39617e-05 -8.2788e-23 3.39617e-05)
(2.20172e-05 2.09675e-06 -3.38662e-06 2.20172e-05 -6.35761e-23 2.20172e-05)
(1.27756e-05 1.20024e-06 -1.54998e-06 1.27756e-05 4.33077e-24 1.27756e-05)
(6.37901e-06 5.28615e-07 -5.28615e-07 6.37901e-06 4.83704e-24 6.37901e-06)
(2.557e-06 1.51465e-07 -1.11422e-07 2.557e-06 -1.94871e-24 2.557e-06)
(7.26187e-07 2.2516e-08 -1.11604e-08 7.26187e-07 -1.13836e-24 7.26187e-07)
(1.63047e-07 1.75983e-09 -4.91889e-10 1.63047e-07 -3.61856e-26 1.63047e-07)
(4.44513e-07 8.4621e-10 -7.41485e-11 4.44513e-07 -3.46234e-26 4.44513e-07)
(0.000874907 2.65666e-07 -0.000401753 0.000874907 -3.52754e-19 0.000874907)
(0.00087258 7.88223e-07 -0.000400607 0.00087258 -4.22182e-19 0.00087258)
(0.000868193 1.29712e-06 -0.000398447 0.000868193 -8.02119e-20 0.000868193)
(0.000861993 1.7959e-06 -0.000395387 0.000861993 -2.54809e-20 0.000861993)
(0.00085418 2.29097e-06 -0.000391533 0.00085418 -1.99183e-20 0.00085418)
(0.000844927 2.78444e-06 -0.000386962 0.000844927 -2.97992e-20 0.000844927)
(0.00083438 3.27993e-06 -0.000381751 0.00083438 -2.78919e-20 0.00083438)
(0.00082268 3.78143e-06 -0.000375958 0.00082268 -1.76496e-20 0.00082268)
(0.00080994 4.288e-06 -0.000369637 0.00080994 -3.6069e-20 0.00080994)
(0.00079626 4.80624e-06 -0.000362847 0.00079626 -3.97477e-20 0.00079626)
(0.000781733 5.33579e-06 -0.000355624 0.000781733 -2.0771e-20 0.000781733)
(0.000766453 5.87788e-06 -0.000348008 0.000766453 -1.75737e-20 0.000766453)
(0.000750487 6.43476e-06 -0.000340035 0.000750487 -1.64043e-20 0.000750487)
(0.000733907 7.00943e-06 -0.000331738 0.000733907 -1.64099e-20 0.000733907)
(0.000716773 7.60469e-06 -0.000323147 0.000716773 -1.85277e-20 0.000716773)
(0.00069914 8.2189e-06 -0.000314278 0.00069914 -1.57392e-20 0.00069914)
(0.000681053 8.85789e-06 -0.000305167 0.000681053 -4.38436e-21 0.000681053)
(0.000662555 9.52771e-06 -0.000295813 0.000662555 -2.10618e-20 0.000662555)
(0.000643661 1.02291e-05 -0.000286241 0.000643661 -2.66771e-20 0.000643661)
(0.000624361 1.09709e-05 -0.000276442 0.000624361 -1.45841e-20 0.000624361)
(0.000604604 1.17692e-05 -0.000266401 0.000604604 -9.11991e-21 0.000604604)
(0.000584176 1.26229e-05 -0.000256042 0.000584176 -9.06939e-21 0.000584176)
(0.000563041 1.35016e-05 -0.000245347 0.000563041 -1.2789e-20 0.000563041)
(0.000541373 1.44014e-05 -0.000234383 0.000541373 -1.2208e-20 0.000541373)
(0.000519187 1.53432e-05 -0.000223156 0.000519187 -8.54993e-21 0.000519187)
(0.000496401 1.63378e-05 -0.000211633 0.000496401 -1.22973e-20 0.000496401)
(0.000472832 1.73649e-05 -0.000199724 0.000472832 -1.3873e-20 0.000472832)
(0.000448433 1.83774e-05 -0.000187423 0.000448433 -1.024e-20 0.000448433)
(0.000423331 1.93554e-05 -0.000174814 0.000423331 -1.34169e-20 0.000423331)
(0.00039756 2.02914e-05 -0.000161935 0.00039756 -5.77997e-21 0.00039756)
(0.000371081 2.116e-05 -0.000148799 0.000371081 1.18954e-22 0.000371081)
(0.000343832 2.1926e-05 -0.000135402 0.000343832 -7.78648e-21 0.000343832)
(0.000315749 2.25351e-05 -0.000121766 0.000315749 -8.56077e-21 0.000315749)
(0.000286799 2.29137e-05 -0.000107933 0.000286799 -1.98823e-21 0.000286799)
(0.000256967 2.29793e-05 -9.39673e-05 0.000256967 -5.37355e-22 0.000256967)
(0.000226272 2.26349e-05 -7.996e-05 0.000226272 -2.00346e-21 0.000226272)
(0.000194805 2.1765e-05 -6.60537e-05 0.000194805 -2.44092e-21 0.000194805)
(0.000162826 2.02497e-05 -5.24619e-05 0.000162826 -1.65381e-21 0.000162826)
(0.000130835 1.79962e-05 -3.9501e-05 0.000130835 -7.00269e-22 0.000130835)
(9.9708e-05 1.49819e-05 -2.76071e-05 9.9708e-05 1.52802e-22 9.9708e-05)
(7.07913e-05 1.13419e-05 -1.73468e-05 7.07913e-05 -1.703e-22 7.07913e-05)
(4.57777e-05 7.4613e-06 -9.3282e-06 4.57777e-05 -3.98044e-22 4.57777e-05)
(2.62075e-05 3.97615e-06 -3.97615e-06 2.62075e-05 -1.12221e-22 2.62075e-05)
(1.27756e-05 1.54998e-06 -1.20024e-06 1.27756e-05 1.03323e-24 1.27756e-05)
(4.96981e-06 3.8813e-07 -2.21258e-07 4.96981e-06 1.04215e-24 4.96981e-06)
(1.36759e-06 5.26168e-08 -2.02571e-08 1.36759e-06 -1.54238e-24 1.36759e-06)
(2.7731e-07 3.64758e-09 -7.95286e-10 2.7731e-07 -3.83463e-26 2.7731e-07)
(6.46055e-07 1.48671e-09 -1.02276e-10 6.46055e-07 -6.68321e-26 6.46055e-07)
(0.00113849 4.67741e-07 -0.000529395 0.00113849 -4.88185e-19 0.00113849)
(0.00113585 1.39082e-06 -0.000528169 0.00113585 -6.00603e-19 0.00113585)
(0.00113089 2.29157e-06 -0.000525857 0.00113089 -1.36525e-19 0.00113089)
(0.00112389 3.17914e-06 -0.000522599 0.00112389 -4.52331e-20 0.00112389)
(0.00111505 4.06579e-06 -0.000518475 0.00111505 -2.91758e-20 0.00111505)
(0.00110457 4.9575e-06 -0.000513605 0.00110457 -3.61948e-20 0.00110457)
(0.00109263 5.86075e-06 -0.000508037 0.00109263 -3.34242e-20 0.00109263)
(0.00107937 6.78521e-06 -0.000501864 0.00107937 -1.68333e-20 0.00107937)
(0.00106493 7.73188e-06 -0.00049513 0.00106493 -5.48458e-20 0.00106493)
(0.00104941 8.71005e-06 -0.000487893 0.00104941 -7.78465e-20 0.00104941)
(0.00103291 9.72407e-06 -0.000480204 0.00103291 -6.92367e-21 0.00103291)
(0.00101553 1.07782e-05 -0.000472101 0.00101553 -6.44045e-21 0.00101553)
(0.000997367 1.18824e-05 -0.000463624 0.000997367 -1.55947e-20 0.000997367)
(0.000978473 1.30361e-05 -0.000454798 0.000978473 -3.912e-21 0.000978473)
(0.000958913 1.42492e-05 -0.000445665 0.000958913 -3.26119e-20 0.000958913)
(0.000938767 1.55307e-05 -0.000436256 0.000938767 -2.48301e-20 0.000938767)
(0.000918067 1.68878e-05 -0.000426569 0.000918067 -7.48069e-21 0.000918067)
(0.000896853 1.83309e-05 -0.000416632 0.000896853 -3.52931e-20 0.000896853)
(0.00087514 1.98732e-05 -0.000406456 0.00087514 -3.4434e-20 0.00087514)
(0.000852913 2.15276e-05 -0.000396019 0.000852913 -1.57643e-20 0.000852913)
(0.000830093 2.32998e-05 -0.000385294 0.000830093 -1.37334e-20 0.000830093)
(0.000806413 2.51524e-05 -0.00037355 0.000806413 -1.34142e-22 0.000806413)
(0.0007818 2.707e-05 -0.000360703 0.0007818 1.12996e-21 0.0007818)
(0.00075646 2.91062e-05 -0.000347433 0.00075646 -2.04332e-20 0.00075646)
(0.0007304 3.12706e-05 -0.000333747 0.0007304 -2.3048e-20 0.0007304)
(0.000703473 3.35905e-05 -0.000319586 0.000703473 -2.63526e-20 0.000703473)
(0.000675393 3.60407e-05 -0.000304842 0.000675393 -2.85396e-20 0.000675393)
(0.000646037 3.85174e-05 -0.000289431 0.000646037 -1.10538e-20 0.000646037)
(0.000615547 4.0981e-05 -0.000273436 0.000615547 -1.70306e-20 0.000615547)
(0.000583901 4.34211e-05 -0.00025686 0.000583901 -1.17421e-20 0.000583901)
(0.00055096 4.57992e-05 -0.000239652 0.00055096 1.52685e-21 0.00055096)
(0.000516546 4.8038e-05 -0.00022175 0.000516546 -1.23754e-20 0.000516546)
(0.000480452 5.00084e-05 -0.000203106 0.000480452 -1.64677e-20 0.000480452)
(0.000442501 5.15535e-05 -0.000183703 0.000442501 -3.95338e-21 0.000442501)
(0.000402513 5.24841e-05 -0.000163533 0.000402513 -1.46912e-21 0.000402513)
(0.000360306 5.25479e-05 -0.000142603 0.000360306 -4.24082e-21 0.000360306)
(0.00031576 5.14352e-05 -0.000120973 0.00031576 -4.79206e-21 0.00031576)
(0.000268972 4.87818e-05 -9.88345e-05 0.000268972 -4.86052e-21 0.000268972)
(0.000220383 4.42017e-05 -7.65309e-05 0.000220383 -2.08612e-21 0.000220383)
(0.000171095 3.7399e-05 -5.47502e-05 0.000171095 -4.96586e-22 0.000171095)
(0.000123271 2.84602e-05 -3.47446e-05 0.000123271 -2.11459e-23 0.000123271)
(8.02667e-05 1.83932e-05 -1.83932e-05 8.02667e-05 -9.06099e-23 8.02667e-05)
(4.57777e-05 9.3282e-06 -7.4613e-06 4.57777e-05 -2.52096e-22 4.57777e-05)
(2.20172e-05 3.38662e-06 -2.09675e-06 2.20172e-05 -7.1005e-23 2.20172e-05)
(8.41473e-06 7.96483e-07 -3.63339e-07 8.41473e-06 -1.58363e-23 8.41473e-06)
(2.27489e-06 1.03929e-07 -3.21008e-08 2.27489e-06 -4.27513e-24 2.27489e-06)
(4.32098e-07 6.69859e-09 -1.17636e-09 4.32098e-07 -7.72264e-27 4.32098e-07)
(8.84507e-07 2.38504e-09 -1.32833e-10 8.84507e-07 -7.71095e-26 8.84507e-07)
(0.00133763 7.17229e-07 -0.000622006 0.00133763 -5.88433e-19 0.00133763)
(0.00133483 2.13175e-06 -0.000620699 0.00133483 -7.22331e-19 0.00133483)
(0.00132958 3.5138e-06 -0.000618253 0.00132958 -1.64459e-19 0.00132958)
(0.00132214 4.88278e-06 -0.000614785 0.00132214 -6.47953e-20 0.00132214)
(0.00131277 6.25471e-06 -0.000610409 0.00131277 -4.16754e-20 0.00131277)
(0.00130165 7.64116e-06 -0.000605227 0.00130165 -3.26281e-20 0.00130165)
(0.00128899 9.05675e-06 -0.000599316 0.00128899 -3.6119e-21 0.00128899)
(0.00127493 1.0512e-05 -0.000592754 0.00127493 -1.57191e-20 0.00127493)
(0.0012596 1.20144e-05 -0.000585597 0.0012596 -7.42158e-20 0.0012596)
(0.00124313 1.3579e-05 -0.0005779 0.00124313 -1.02192e-19 0.00124313)
(0.00122564 1.52142e-05 -0.000569722 0.00122564 1.86396e-20 0.00122564)
(0.00120721 1.69277e-05 -0.000561096 0.00120721 3.783e-20 0.00120721)
(0.00118794 1.87339e-05 -0.000552073 0.00118794 -1.10023e-20 0.00118794)
(0.0011679 2.06432e-05 -0.000542689 0.0011679 8.89456e-21 0.0011679)
(0.00114715 2.26636e-05 -0.00053295 0.00114715 -4.13768e-20 0.00114715)
(0.00112578 2.48147e-05 -0.000522904 0.00112578 -3.87272e-20 0.00112578)
(0.00110382 2.71136e-05 -0.000512566 0.00110382 6.75326e-21 0.00110382)
(0.00108131 2.95724e-05 -0.000501945 0.00108131 -1.22589e-20 0.00108131)
(0.00105826 3.22099e-05 -0.000491038 0.00105826 -3.0664e-20 0.00105826)
(0.00103465 3.50412e-05 -0.000479828 0.00103465 -1.33592e-20 0.00103465)
(0.00101041 3.80544e-05 -0.000468288 0.00101041 -3.74602e-20 0.00101041)
(0.000985427 4.12688e-05 -0.000456358 0.000985427 -1.77731e-20 0.000985427)
(0.00095964 4.47662e-05 -0.000443983 0.00095964 3.71441e-20 0.00095964)
(0.00093306 4.85564e-05 -0.000431145 0.00093306 7.90906e-21 0.00093306)
(0.000905653 5.26188e-05 -0.000417832 0.000905653 -3.59675e-20 0.000905653)
(0.000877273 5.69692e-05 -0.000403938 0.000877273 -4.72534e-20 0.000877273)
(0.000847513 6.14747e-05 -0.000388574 0.000847513 -3.67223e-20 0.000847513)
(0.0008162 6.59857e-05 -0.00037162 0.0008162 -7.18325e-21 0.0008162)
(0.000783487 7.05644e-05 -0.000353961 0.000783487 -4.09613e-21 0.000783487)
(0.00074926 7.51838e-05 -0.000335528 0.00074926 -9.58145e-21 0.00074926)
(0.000713273 7.97635e-05 -0.000316169 0.000713273 -7.43553e-21 0.000713273)
(0.00067522 8.41622e-05 -0.000295798 0.00067522 -7.46812e-21 0.00067522)
(0.000634724 8.81563e-05 -0.000274236 0.000634724 -1.29438e-20 0.000634724)
(0.000591443 9.14613e-05 -0.000251408 0.000591443 -2.80767e-20 0.000591443)
(0.00054499 9.37506e-05 -0.000227216 0.00054499 -1.96017e-20 0.00054499)
(0.000494917 9.45988e-05 -0.000201543 0.000494917 -4.13166e-21 0.000494917)
(0.00044076 9.33946e-05 -0.000174228 0.00044076 -4.93064e-21 0.00044076)
(0.000382287 8.94507e-05 -0.000145297 0.000382287 -4.97035e-21 0.000382287)
(0.000319565 8.19843e-05 -0.000114934 0.000319565 -3.99467e-21 0.000319565)
(0.000253444 7.01906e-05 -8.38486e-05 0.000253444 -1.00559e-21 0.000253444)
(0.000186366 5.38553e-05 -5.38553e-05 0.000186366 8.75e-22 0.000186366)
(0.000123271 3.47447e-05 -2.84602e-05 0.000123271 3.35168e-22 0.000123271)
(7.07913e-05 1.73468e-05 -1.13419e-05 7.07913e-05 -1.61986e-22 7.07913e-05)
(3.39617e-05 6.14807e-06 -3.10672e-06 3.39617e-05 -1.59519e-22 3.39617e-05)
(1.28775e-05 1.41572e-06 -5.27418e-07 1.28775e-05 -6.70427e-23 1.28775e-05)
(3.44848e-06 1.81931e-07 -4.60059e-08 3.44848e-06 -1.15794e-23 3.44848e-06)
(6.27409e-07 1.11883e-08 -1.61435e-09 6.27409e-07 -1.05856e-25 6.27409e-07)
(1.15848e-06 3.5778e-09 -1.64402e-10 1.15848e-06 -1.13914e-25 1.15848e-06)
(0.00148195 1.01334e-06 -0.000689195 0.00148195 -6.50043e-19 0.00148195)
(0.00147909 3.01244e-06 -0.000687848 0.00147909 -8.23693e-19 0.00147909)
(0.00147371 4.9718e-06 -0.000685349 0.00147371 -2.18294e-19 0.00147371)
(0.00146611 6.91781e-06 -0.000681788 0.00146611 -7.82261e-20 0.00146611)
(0.00145652 8.87587e-06 -0.000677304 0.00145652 -4.35092e-20 0.00145652)
(0.00144517 1.08651e-05 -0.000671988 0.00144517 -1.20322e-20 0.00144517)
(0.00143223 1.29037e-05 -0.000665934 0.00143223 8.48713e-21 0.00143223)