/*--------------------------------*- C++ -*----------------------------------*\
| =========                 |                                                 |
| \\      /  F ield         | OpenFOAM: The Open Source CFD Toolbox           |
|  \\    /   O peration     | Version:  2112                                  |
|   \\  /    A nd           | Website:  www.openfoam.com                      |
|    \\/     M anipulation  |                                                 |
\*---------------------------------------------------------------------------*/
FoamFile
{
    version     2.0;
    format      ascii;
    arch        "LSB;label=32;scalar=64";
    class       volVectorField;
    location    "776";
    object      U_HF;
}
// * * * * * * * * * * * * * * * * * * * * * * * * * * * * * * * * * * * * * //

dimensions      [0 1 -1 0 0 0 0];

internalField   nonuniform List<vector> 
2304
(
(0.023589 -2.96e-05 1.87e-06)
(0.0235609 -8.776e-05 1.84e-06)
(0.0234966 -0.00013589 1.53e-06)
(0.0233799 -0.00017636 1.46e-06)
(0.0232235 -0.00021662 1.43e-06)
(0.0230592 -0.00025597 1.75e-06)
(0.0228887 -0.00030924 2.47e-06)
(0.0227447 -0.00036967 2.8e-06)
(0.0225998 -0.00043149 2.63e-06)
(0.0224245 -0.00048934 2.77e-06)
(0.0222456 -0.00054658 3.22e-06)
(0.0220667 -0.00061256 3.59e-06)
(0.0218991 -0.00068458 3.93e-06)
(0.0217604 -0.00075621 4.41e-06)
(0.0216402 -0.00083861 4.97e-06)
(0.0215551 -0.00091796 5.47e-06)
(0.0215006 -0.00100908 5.9e-06)
(0.0214895 -0.00109634 5.9e-06)
(0.0215179 -0.00117807 5.58e-06)
(0.0215651 -0.00124748 5.29e-06)
(0.0216396 -0.00131693 4.84e-06)
(0.0217167 -0.0013703 4.23e-06)
(0.0217923 -0.00141283 3.38e-06)
(0.0218623 -0.00144356 1.72e-06)
(0.0218904 -0.0014529 8e-08)
(0.0218686 -0.00144166 -2.04e-06)
(0.0217768 -0.00140915 -4.43e-06)
(0.0215993 -0.0013548 -7.01e-06)
(0.0213211 -0.00127904 -9.7e-06)
(0.0209268 -0.00118272 -1.242e-05)
(0.0204325 -0.001074 -1.469e-05)
(0.0198085 -0.00095103 -1.669e-05)
(0.0190065 -0.00081173 -1.837e-05)
(0.0181617 -0.00068321 -1.895e-05)
(0.0171664 -0.00055348 -1.878e-05)
(0.0161272 -0.00043859 -1.788e-05)
(0.0149582 -0.00033243 -1.615e-05)
(0.0136695 -0.00023973 -1.363e-05)
(0.0123392 -0.00016633 -1.084e-05)
(0.0111099 -0.00011525 -8.72e-06)
(0.00981609 -7.558e-05 -6.65e-06)
(0.00858464 -4.809e-05 -5.11e-06)
(0.00721748 -2.67e-05 -3.5e-06)
(0.00589115 -1.342e-05 -2.28e-06)
(0.00464557 -5.77e-06 -1.38e-06)
(0.00336906 -1.61e-06 -6.2e-07)
(0.00206144 -1.6e-07 -1.4e-07)
(0.000788612 2e-08 2e-08)
(0.0711931 -8.402e-05 1.623e-05)
(0.0711063 -0.00024886 1.608e-05)
(0.0709073 -0.00039081 1.342e-05)
(0.0705453 -0.00051356 1.316e-05)
(0.0700709 -0.0006337 1.311e-05)
(0.0695905 -0.00074844 1.543e-05)
(0.0690892 -0.00089399 2.092e-05)
(0.0686504 -0.00106603 2.359e-05)
(0.0682126 -0.00123364 2.253e-05)
(0.067693 -0.00139617 2.347e-05)
(0.0671455 -0.0015565 2.74e-05)
(0.0666021 -0.00174121 3.056e-05)
(0.0661185 -0.00193462 3.339e-05)
(0.0656966 -0.00213539 3.742e-05)
(0.0653415 -0.0023541 4.185e-05)
(0.0650824 -0.00258999 4.611e-05)
(0.0649327 -0.00281646 4.908e-05)
(0.064902 -0.00305473 4.926e-05)
(0.0649912 -0.00327248 4.665e-05)
(0.0651537 -0.00346712 4.336e-05)
(0.0653605 -0.00363766 4.023e-05)
(0.0655992 -0.00377627 3.473e-05)
(0.0658715 -0.00389216 2.414e-05)
(0.0660599 -0.00395291 1.246e-05)
(0.0661529 -0.00396537 -2.96e-06)
(0.0660859 -0.00391986 -2.101e-05)
(0.0658105 -0.00381749 -4.05e-05)
(0.0652706 -0.00365456 -6.22e-05)
(0.0644269 -0.00343621 -8.439e-05)
(0.063242 -0.00316737 -0.00010612)
(0.0617039 -0.00285903 -0.00012557)
(0.0597828 -0.00251919 -0.00014169)
(0.0573947 -0.00215144 -0.00015359)
(0.0548289 -0.00180561 -0.0001578)
(0.0517385 -0.00145278 -0.00015575)
(0.0484231 -0.00113453 -0.00014657)
(0.0450218 -0.00086455 -0.00013283)
(0.0411293 -0.0006202 -0.00011244)
(0.0370875 -0.00042556 -8.995e-05)
(0.0333473 -0.00028867 -7.174e-05)
(0.0294012 -0.00018331 -5.394e-05)
(0.0254639 -0.00010945 -3.921e-05)
(0.0215546 -5.96e-05 -2.73e-05)
(0.0176663 -2.89e-05 -1.781e-05)
(0.0140103 -1.171e-05 -1.087e-05)
(0.00987885 -2.76e-06 -4.33e-06)
(0.0062507 -6e-08 -1.24e-06)
(0.00206145 6e-08 1.2e-07)
(0.119354 -0.00013477 4.409e-05)
(0.119207 -0.00039345 4.395e-05)
(0.118874 -0.00062334 3.714e-05)
(0.118279 -0.00082282 3.604e-05)
(0.117525 -0.0010163 3.689e-05)
(0.116689 -0.00121797 4.313e-05)
(0.115869 -0.00144934 5.644e-05)
(0.115151 -0.00171313 6.21e-05)
(0.114451 -0.00196828 6.052e-05)
(0.113607 -0.00221864 6.332e-05)
(0.112706 -0.00247117 7.285e-05)
(0.111812 -0.00275892 8.175e-05)
(0.111045 -0.00305178 8.903e-05)
(0.110363 -0.00336542 9.965e-05)
(0.109815 -0.00369519 0.00011017)
(0.109415 -0.00404291 0.00012076)
(0.109193 -0.00438813 0.00012806)
(0.109179 -0.0047403 0.00012831)
(0.109348 -0.00505886 0.00012165)
(0.109653 -0.00534521 0.00011221)
(0.110034 -0.00558989 0.00010164)
(0.110463 -0.00578748 8.558e-05)
(0.110903 -0.00593014 6.047e-05)
(0.111248 -0.00600336 2.749e-05)
(0.111423 -0.00599358 -1.607e-05)
(0.111315 -0.00590095 -6.245e-05)
(0.11085 -0.00571926 -0.00011533)
(0.109942 -0.00544987 -0.00017177)
(0.108531 -0.00510298 -0.00022813)
(0.106522 -0.00468087 -0.00028406)
(0.103923 -0.00420654 -0.00033308)
(0.100676 -0.00369149 -0.00037295)
(0.0967371 -0.00315199 -0.00040071)
(0.0923907 -0.00263128 -0.00041098)
(0.0872376 -0.00211493 -0.00040513)
(0.0816504 -0.00164486 -0.00038169)
(0.0756487 -0.0012309 -0.00034318)
(0.0693335 -0.00088309 -0.00029421)
(0.0626466 -0.0006003 -0.00023766)
(0.0563309 -0.00039438 -0.00018984)
(0.0494934 -0.00023807 -0.00013972)
(0.0426827 -0.00013204 -9.803e-05)
(0.0361665 -6.499e-05 -6.709e-05)
(0.0294526 -2.635e-05 -4.121e-05)
(0.0228364 -7e-06 -2.198e-05)
(0.0166576 1.44e-06 -9.35e-06)
(0.00992019 1.72e-06 -1.17e-06)
(0.00338948 3.4e-07 7.8e-07)
(0.166245 -0.00017853 8.601e-05)
(0.166043 -0.00051832 8.589e-05)
(0.165572 -0.00082967 7.455e-05)
(0.164762 -0.00110396 7.126e-05)
(0.163764 -0.00137332 7.425e-05)
(0.16262 -0.00165162 8.623e-05)
(0.16154 -0.00195635 0.00010853)
(0.160618 -0.0022865 0.00011883)
(0.159682 -0.00262493 0.00011675)
(0.158598 -0.00294231 0.00012154)
(0.157383 -0.00327708 0.00013939)
(0.156253 -0.0036355 0.00015631)
(0.15525 -0.00402195 0.00017046)
(0.154409 -0.00441799 0.00018893)
(0.153746 -0.0048392 0.00020872)
(0.153297 -0.00527101 0.0002268)
(0.153093 -0.00570155 0.00023889)
(0.153161 -0.00611906 0.00023778)
(0.153497 -0.00650634 0.00022316)
(0.153958 -0.00683898 0.00020611)
(0.154582 -0.00712035 0.00018038)
(0.15528 -0.00733686 0.00014319)
(0.15591 -0.00747551 9.506e-05)
(0.156405 -0.00752609 3.214e-05)
(0.156657 -0.00747071 -4.873e-05)
(0.15651 -0.00731405 -0.00013652)
(0.155857 -0.00704495 -0.00023633)
(0.154589 -0.00667427 -0.00034008)
(0.152594 -0.00620851 -0.00044482)
(0.149817 -0.00566715 -0.00054273)
(0.146153 -0.00506111 -0.00063097)
(0.141648 -0.00442051 -0.0006999)
(0.136176 -0.00375772 -0.00074675)
(0.129876 -0.00310649 -0.00076381)
(0.122772 -0.00248638 -0.00074985)
(0.115131 -0.00192407 -0.00070705)
(0.106334 -0.00141256 -0.00063008)
(0.0976793 -0.00099833 -0.00054241)
(0.0887489 -0.00066664 -0.00044699)
(0.0788573 -0.0004064 -0.0003371)
(0.0694342 -0.00022779 -0.00024729)
(0.0601969 -0.00011026 -0.00017413)
(0.0508462 -3.881e-05 -0.00011324)
(0.0413622 -3.5e-06 -6.563e-05)
(0.0325402 1.154e-05 -3.38e-05)
(0.0228373 1.078e-05 -8.48e-06)
(0.0139043 6.28e-06 2.59e-06)
(0.00462374 8.6e-07 3.17e-06)
(0.210556 -0.00021572 0.00014048)
(0.210304 -0.00062565 0.00014001)
(0.209709 -0.00100931 0.00012377)
(0.208729 -0.00135538 0.00011981)
(0.207506 -0.00169397 0.00012682)
(0.206142 -0.00204402 0.00014236)
(0.204873 -0.00241505 0.00017419)
(0.20379 -0.0028141 0.00018922)
(0.202707 -0.00320919 0.00018899)
(0.201434 -0.00359402 0.00019561)
(0.200043 -0.00398378 0.00022286)
(0.198761 -0.00440767 0.00024988)
(0.197662 -0.00485552 0.00027295)
(0.19677 -0.00531716 0.00030014)
(0.196115 -0.00579641 0.00032798)
(0.195721 -0.00628019 0.00035324)
(0.19564 -0.00676264 0.0003704)
(0.195885 -0.00722237 0.00036706)
(0.19641 -0.00763523 0.00034407)
(0.197158 -0.00798738 0.00031018)
(0.198041 -0.00826781 0.00026711)
(0.198975 -0.00846643 0.00020696)
(0.199858 -0.00857097 0.00012526)
(0.20056 -0.00856284 1.695e-05)
(0.20088 -0.00844499 -0.0001071)
(0.200697 -0.00820032 -0.00025129)
(0.199864 -0.00784196 -0.00040476)
(0.198258 -0.00737472 -0.00056295)
(0.195739 -0.00680803 -0.00072119)
(0.192193 -0.00616131 -0.00087032)
(0.187593 -0.00546277 -0.00099836)
(0.181864 -0.00473135 -0.00109906)
(0.174946 -0.00399038 -0.00116385)
(0.167146 -0.00327588 -0.00118415)
(0.158096 -0.0025929 -0.00115921)
(0.14821 -0.00197333 -0.00108858)
(0.137412 -0.0014287 -0.00097539)
(0.126232 -0.00097576 -0.00083703)
(0.114459 -0.00061444 -0.00067988)
(0.10224 -0.00034502 -0.00051872)
(0.0902876 -0.00015974 -0.00037941)
(0.077849 -4.452e-05 -0.00025275)
(0.0656342 1.72e-05 -0.00015481)
(0.0537449 4.095e-05 -8.46e-05)
(0.0413647 3.842e-05 -3.194e-05)
(0.0294054 2.662e-05 3.9e-07)
(0.0177062 1.244e-05 1.32e-05)
(0.00591583 1.66e-06 8.47e-06)
(0.25063 -0.00024692 0.00020759)
(0.250339 -0.00071453 0.00020618)
(0.249638 -0.00115797 0.00018726)
(0.248518 -0.00157143 0.00018203)
(0.247156 -0.00197464 0.00019266)
(0.245637 -0.00238873 0.00021363)
(0.244271 -0.00281704 0.00025445)
(0.24313 -0.00326491 0.00027507)
(0.241977 -0.00371198 0.00027695)
(0.240631 -0.00414492 0.00028491)
(0.239187 -0.00457654 0.00032099)
(0.237892 -0.00504597 0.0003617)
(0.236824 -0.00554028 0.0003944)
(0.236016 -0.00604646 0.0004306)
(0.235499 -0.00655986 0.00046595)
(0.235291 -0.00706851 0.00049693)
(0.23542 -0.00756318 0.00051598)
(0.235939 -0.00802503 0.00050716)
(0.236767 -0.00842711 0.0004687)
(0.237788 -0.00875563 0.00041583)
(0.238949 -0.00899844 0.00034827)
(0.240174 -0.00914045 0.00025476)
(0.2413 -0.00917499 0.00013168)
(0.242161 -0.0090877 -2.35e-05)
(0.242567 -0.00887676 -0.00020432)
(0.242354 -0.00854037 -0.0004055)
(0.241365 -0.00808152 -0.00062305)
(0.239454 -0.00751609 -0.00084483)
(0.236496 -0.0068649 -0.00105799)
(0.232365 -0.00614566 -0.00125435)
(0.22696 -0.0053829 -0.00142338)
(0.220282 -0.00460493 -0.0015507)
(0.212277 -0.00383338 -0.00162895)
(0.202952 -0.00309192 -0.00164996)
(0.192457 -0.00239916 -0.00161052)
(0.180774 -0.00177502 -0.00150983)
(0.168054 -0.00123439 -0.0013536)
(0.154531 -0.00078591 -0.00115632)
(0.140315 -0.00043611 -0.00093348)
(0.12574 -0.00018127 -0.00071024)
(0.110841 -1.55e-05 -0.00050154)
(0.0958613 7.699e-05 -0.00032432)
(0.0808279 0.00011237 -0.00018302)
(0.0656391 0.00010536 -7.987e-05)
(0.0508531 8.18e-05 -1.334e-05)
(0.0361731 5.027e-05 2.559e-05)
(0.021559 2.086e-05 3.513e-05)
(0.00721898 2.72e-06 1.828e-05)
(0.28553 -0.00026967 0.00028668)
(0.285211 -0.00078549 0.00028381)
(0.284429 -0.00127681 0.00026402)
(0.283218 -0.00174747 0.0002587)
(0.281773 -0.00221156 0.00027409)
(0.28019 -0.00268037 0.00030018)
(0.278812 -0.00315531 0.00034766)
(0.277697 -0.00364595 0.00037494)
(0.276556 -0.00413213 0.00037935)
(0.275244 -0.00459976 0.00038792)
(0.273864 -0.00505925 0.00043296)
(0.272685 -0.00555137 0.0004868)
(0.271753 -0.0060686 0.00053024)
(0.27116 -0.00659329 0.00057447)
(0.270888 -0.00711329 0.0006146)
(0.270936 -0.00761598 0.00064749)
(0.27139 -0.0080859 0.00066403)
(0.272212 -0.0085115 0.00064478)
(0.273338 -0.00886636 0.00058746)
(0.274663 -0.00913153 0.000507)
(0.276111 -0.00929683 0.00040404)
(0.277583 -0.00935119 0.00027005)
(0.278912 -0.00928553 9.818e-05)
(0.279903 -0.0090932 -0.00011252)
(0.280363 -0.00876912 -0.00035789)
(0.280114 -0.00832933 -0.00062294)
(0.279001 -0.00777634 -0.00090343)
(0.276875 -0.00713005 -0.00118395)
(0.273588 -0.00640915 -0.00145222)
(0.269017 -0.00564042 -0.00169261)
(0.26309 -0.00484976 -0.00189072)
(0.255688 -0.0040598 -0.0020382)
(0.246877 -0.00329202 -0.00212152)
(0.236574 -0.00256815 -0.00213446)
(0.224758 -0.00190982 -0.00206941)
(0.211635 -0.00132406 -0.0019303)
(0.197438 -0.00081803 -0.00173)
(0.181802 -0.00042408 -0.00146075)
(0.165645 -0.00011428 -0.00117396)
(0.148715 9.382e-05 -0.00087576)
(0.131332 0.00021335 -0.00059755)
(0.113513 0.00025521 -0.00035521)
(0.0958424 0.00024822 -0.00017085)
(0.0779313 0.00020056 -4.03e-05)
(0.0601348 0.00013901 3.904e-05)
(0.0426941 7.971e-05 7.74e-05)
(0.0255222 3.246e-05 7.509e-05)
(0.00858725 4.25e-06 3.55e-05)
(0.315793 -0.00028676 0.00037608)
(0.315452 -0.00084129 0.00037185)
(0.314613 -0.00137371 0.000353)
(0.313352 -0.00189066 0.00034913)
(0.311877 -0.00240112 0.00036792)
(0.310297 -0.00292268 0.00040039)
(0.308977 -0.00344394 0.00045494)
(0.307935 -0.00396611 0.00048596)
(0.306865 -0.00447951 0.00049331)
(0.305643 -0.00496654 0.00050101)
(0.304441 -0.00544192 0.0005538)
(0.303477 -0.00593949 0.00062248)
(0.302768 -0.00645863 0.00067629)
(0.302414 -0.00697636 0.00072504)
(0.302445 -0.00747476 0.00076568)
(0.302809 -0.00794204 0.00079565)
(0.30354 -0.00836687 0.00080511)
(0.3047 -0.00871408 0.0007684)
(0.306132 -0.00897881 0.00068215)
(0.307691 -0.00916435 0.00057165)
(0.309393 -0.00921117 0.00042037)
(0.311031 -0.00917642 0.0002474)
(0.312519 -0.00896868 8.18e-06)
(0.313585 -0.00867283 -0.00025619)
(0.314065 -0.00823758 -0.0005648)
(0.313785 -0.00769155 -0.0008974)
(0.312588 -0.00705268 -0.0012397)
(0.310328 -0.00633853 -0.00157628)
(0.306854 -0.00557184 -0.00189059)
(0.302039 -0.00477908 -0.00216447)
(0.295778 -0.00398361 -0.00238524)
(0.287987 -0.00320871 -0.00254003)
(0.278607 -0.0024742 -0.00261817)
(0.267583 -0.00180186 -0.00260944)
(0.255018 -0.00119243 -0.00251641)
(0.240777 -0.00067845 -0.00232822)
(0.225249 -0.00024021 -0.00207056)
(0.208096 7.862e-05 -0.00173091)
(0.190332 0.00033105 -0.00137978)
(0.171182 0.00046158 -0.00099514)
(0.151634 0.00051903 -0.00064615)
(0.131419 0.0004979 -0.00034122)
(0.110853 0.00042384 -0.00010406)
(0.0903051 0.00032421 5.137e-05)
(0.0694533 0.00021184 0.00013589)
(0.0495103 0.00012062 0.00016618)
(0.0294123 4.657e-05 0.00013691)
(0.00984909 5.85e-06 5.94e-05)
(0.34176 -0.00029893 0.00047468)
(0.341399 -0.00088298 0.00046984)
(0.340527 -0.00145078 0.00045352)
(0.339252 -0.00200717 0.00045191)
(0.337792 -0.00256048 0.00047674)
(0.33626 -0.0031174 0.00051553)
(0.335046 -0.00367748 0.00057375)
(0.334107 -0.00422421 0.00060817)
(0.33315 -0.00475191 0.00061639)
(0.332109 -0.00524689 0.00062226)
(0.33112 -0.00572409 0.00068163)
(0.330407 -0.00621001 0.00076098)
(0.329967 -0.00670652 0.00082373)
(0.329888 -0.00719085 0.00087461)
(0.330197 -0.00764696 0.00091131)
(0.330874 -0.00804846 0.00092991)
(0.331927 -0.008382 0.00092245)
(0.333302 -0.00864619 0.00086624)
(0.334955 -0.00880654 0.00074977)
(0.336747 -0.0088471 0.00058671)
(0.338563 -0.00881759 0.00040469)
(0.340348 -0.00861347 0.00015554)
(0.341883 -0.00831875 -0.00012509)
(0.342975 -0.00787776 -0.0004684)
(0.343449 -0.00734441 -0.00083669)
(0.343147 -0.00671623 -0.00122713)
(0.341915 -0.00600838 -0.00162632)
(0.339607 -0.00524701 -0.00201197)
(0.336075 -0.00445804 -0.00236162)
(0.331183 -0.00366404 -0.00265926)
(0.324811 -0.00288909 -0.00289)
(0.31685 -0.00215303 -0.00303994)
(0.307217 -0.00147581 -0.00309868)
(0.295869 -0.00085751 -0.00306482)
(0.282715 -0.00033916 -0.00292021)
(0.267878 0.0001075 -0.00268729)
(0.251206 0.00043512 -0.00234654)
(0.233098 0.00068627 -0.00194808)
(0.213699 0.00084663 -0.00150994)
(0.192793 0.0008918 -0.00104082)
(0.171279 0.00087435 -0.00061841)
(0.148641 0.00077208 -0.00024357)
(0.125754 0.00063289 3.549e-05)
(0.102334 0.00046511 0.00021206)
(0.0788814 0.00030151 0.00029231)
(0.0563521 0.00017066 0.00030402)
(0.0333609 6.43e-05 0.00022983)
(0.0110847 7.7e-06 9.288e-05)
(0.363972 -0.00030818 0.00058186)
(0.363595 -0.00091266 0.00057718)
(0.362712 -0.00150606 0.00056418)
(0.36145 -0.00208964 0.00056586)
(0.36003 -0.0026744 0.00059619)
(0.358597 -0.00326694 0.00064432)
(0.357499 -0.00385677 0.00070453)
(0.356685 -0.00441629 0.00074118)
(0.355862 -0.00494518 0.0007454)
(0.35501 -0.00543381 0.00074976)
(0.354293 -0.00590029 0.00081151)
(0.353833 -0.00635977 0.0008977)
(0.353637 -0.00682037 0.00096603)
(0.35385 -0.00724161 0.00101518)
(0.354443 -0.00761822 0.00103945)
(0.355364 -0.00793799 0.00104209)
(0.356626 -0.00818142 0.00101366)
(0.358218 -0.00830546 0.00092151)
(0.360012 -0.00834527 0.00076895)
(0.361908 -0.00826136 0.00056179)
(0.363811 -0.0080896 0.00031816)
(0.365618 -0.00777315 1.666e-05)
(0.367149 -0.00735311 -0.0003318)
(0.36821 -0.00680933 -0.00073499)
(0.368656 -0.006186 -0.00116675)
(0.36834 -0.00549126 -0.00161323)
(0.367114 -0.0047425 -0.00205783)
(0.364831 -0.00396159 -0.00247931)
(0.361346 -0.00317385 -0.00285436)
(0.356512 -0.00240188 -0.00316322)
(0.350201 -0.00166682 -0.00339086)
(0.342281 -0.00098697 -0.0035246)
(0.332643 -0.00037614 -0.00355397)
(0.321185 0.00015617 -0.0034752)
(0.307838 0.00058529 -0.00327414)
(0.292599 0.00094982 -0.0029846)
(0.275445 0.00119443 -0.00257966)
(0.256398 0.00133408 -0.00208634)
(0.235838 0.00140303 -0.00156362)
(0.213524 0.00135846 -0.00100655)
(0.190231 0.00125656 -0.00050376)
(0.165709 0.00107981 -6.612e-05)
(0.140324 0.00085881 0.00026387)
(0.114409 0.00062477 0.00045556)
(0.0887744 0.00041256 0.00052907)
(0.0626705 0.00021898 0.00049172)
(0.0371953 8.363e-05 0.00035753)
(0.0123748 1.011e-05 0.00014152)
(0.383016 -0.00031452 0.00069666)
(0.382628 -0.00093242 0.00069328)
(0.381751 -0.00154572 0.00068643)
(0.38054 -0.00215227 0.00069196)
(0.379196 -0.0027591 0.00072946)
(0.377871 -0.00337243 0.00078481)
(0.376884 -0.00397844 0.00084494)
(0.376184 -0.0045377 0.00087582)
(0.37551 -0.00505353 0.00087744)
(0.374899 -0.00552153 0.00087866)
(0.374406 -0.00596677 0.00094041)
(0.374217 -0.00638405 0.00102782)
(0.374305 -0.00677156 0.0010955)
(0.374718 -0.00712288 0.00113659)
(0.375525 -0.00740657 0.00114399)
(0.376639 -0.00762111 0.00112186)
(0.378058 -0.00773213 0.00105645)
(0.37974 -0.00774231 0.00093195)
(0.381598 -0.00762081 0.00072845)
(0.383528 -0.00743884 0.00048447)
(0.385423 -0.00710348 0.0001689)
(0.387182 -0.00667898 -0.00019257)
(0.388665 -0.00616559 -0.00059365)
(0.389653 -0.00553971 -0.00105624)
(0.390053 -0.00485395 -0.00154069)
(0.389726 -0.00411777 -0.00203485)
(0.38853 -0.00335024 -0.00251918)
(0.386324 -0.00257509 -0.0029669)
(0.38295 -0.00181196 -0.00335429)
(0.378272 -0.00108418 -0.00366189)
(0.372137 -0.00040807 -0.00387386)
(0.36439 0.00020482 -0.00398037)
(0.354944 0.00072607 -0.00396402)
(0.34357 0.001179 -0.00383694)
(0.330271 0.00151526 -0.00357149)
(0.31488 0.00177496 -0.00320334)
(0.297404 0.00191093 -0.00270498)
(0.277955 0.00199111 -0.00215774)
(0.256329 0.00193187 -0.0015082)
(0.233182 0.00182806 -0.00089033)
(0.208128 0.00162374 -0.00028428)
(0.181778 0.00136996 0.00022063)
(0.154547 0.00108689 0.00058726)
(0.126313 0.0007882 0.00079254)
(0.09758 0.00050762 0.00083589)
(0.0694358 0.00027793 0.00075769)
(0.0411458 0.00010568 0.00053592)
(0.013675 1.281e-05 0.00020858)
(0.399421 -0.00031745 0.00081872)
(0.399032 -0.00094359 0.00081745)
(0.39817 -0.00156771 0.0008166)
(0.397026 -0.00218918 0.00082506)
(0.39576 -0.00280706 0.0008705)
(0.394549 -0.00342914 0.00093516)
(0.393685 -0.00403381 0.00099169)
(0.393091 -0.00458066 0.00101768)
(0.392564 -0.0050708 0.00100862)
(0.392136 -0.00551232 0.00100574)
(0.391925 -0.00591494 0.00106379)
(0.39198 -0.00626865 0.00114429)
(0.392252 -0.00659215 0.00120638)
(0.392868 -0.00683836 0.00123009)
(0.393821 -0.00701242 0.00121312)
(0.395055 -0.00710647 0.00115892)
(0.396551 -0.00709926 0.00105666)
(0.398257 -0.00695858 0.00088097)
(0.400109 -0.00672001 0.00063663)
(0.401974 -0.006366 0.00032444)
(0.403828 -0.00595562 -2.776e-05)
(0.405486 -0.00542403 -0.00045015)
(0.406824 -0.00480525 -0.00092523)
(0.407739 -0.00413506 -0.00142886)
(0.408084 -0.00341491 -0.00195582)
(0.407743 -0.00266663 -0.002488)
(0.406586 -0.00190867 -0.00299671)
(0.404473 -0.00116326 -0.00345836)
(0.401251 -0.00044849 -0.00384652)
(0.396767 0.00021878 -0.00414108)
(0.390865 0.00082372 -0.00432708)
(0.383421 0.00134369 -0.00438856)
(0.374196 0.00179244 -0.00432965)
(0.363153 0.00212727 -0.00412361)
(0.349985 0.00239012 -0.00380247)
(0.334718 0.00253473 -0.00333663)
(0.317177 0.00260309 -0.00277665)
(0.297375 0.0025562 -0.00210162)
(0.275357 0.00243826 -0.00138752)
(0.251132 0.00222733 -0.0006479)
(0.225179 0.00196946 1.73e-05)
(0.197386 0.00164727 0.00059069)
(0.168029 0.00128951 0.00101107)
(0.137475 0.00093052 0.00122129)
(0.106351 0.00060032 0.00123059)
(0.0756689 0.00032729 0.00108505)
(0.044959 0.00012611 0.00076304)
(0.0149634 1.543e-05 0.00029646)
(0.41366 -0.00031668 0.00094735)
(0.413278 -0.00094667 0.00094899)
(0.412443 -0.00157377 0.00095546)
(0.41139 -0.0022014 0.0009697)
(0.410227 -0.00282024 0.00102069)
(0.409116 -0.00343429 0.00109001)
(0.408346 -0.00402357 0.00114228)
(0.407847 -0.00454025 0.00115504)
(0.407459 -0.00499349 0.00113612)
(0.407235 -0.00539313 0.00112688)
(0.407226 -0.00574714 0.00117643)
(0.407473 -0.00602722 0.00124203)
(0.407929 -0.00626329 0.00128795)
(0.408679 -0.00640214 0.00128936)
(0.40973 -0.00646089 0.0012434)
(0.411012 -0.00641717 0.00114614)
(0.412506 -0.00627842 0.00099595)
(0.414179 -0.00601038 0.0007711)
(0.415961 -0.00564791 0.00047906)
(0.417743 -0.00519219 0.00012346)
(0.419422 -0.00464264 -0.00030197)
(0.420956 -0.0040411 -0.00077106)
(0.422198 -0.00338192 -0.00128155)
(0.422985 -0.00267189 -0.00183176)
(0.423245 -0.0019415 -0.00239623)
(0.422876 -0.00120396 -0.00295196)
(0.421744 -0.00048111 -0.00347595)
(0.419718 0.0002138 -0.00393917)
(0.416641 0.00086511 -0.00431641)
(0.412366 0.00145412 -0.00458604)
(0.406731 0.00197082 -0.00473324)
(0.399574 0.0024049 -0.00474739)
(0.390712 0.00274892 -0.00462198)
(0.379975 0.00299579 -0.00434995)
(0.367156 0.00314914 -0.00393891)
(0.352113 0.00320254 -0.00338875)
(0.334656 0.00318215 -0.00273943)
(0.314808 0.00305517 -0.0019746)
(0.292501 0.00285891 -0.00116825)
(0.267769 0.0025788 -0.0003402)
(0.240676 0.00223657 0.00043365)
(0.2116 0.00185766 0.00107129)
(0.180726 0.00145259 0.00152779)
(0.148252 0.00104859 0.00174269)
(0.115049 0.00068007 0.00171774)
(0.0816653 0.00036787 0.00148187)
(0.0484358 0.00014127 0.00102641)
(0.0161317 1.726e-05 0.00039836)
(0.426137 -0.00031367 0.00108138)
(0.425763 -0.00094095 0.00108684)
(0.424972 -0.00156238 0.00110112)
(0.423995 -0.00218746 0.00111839)
(0.422928 -0.00279832 0.00117508)
(0.421934 -0.00339203 0.00125017)
(0.421241 -0.00394798 0.00129123)
(0.420824 -0.00441795 0.00128897)
(0.420567 -0.00482308 0.0012567)
(0.420534 -0.00516914 0.0012376)
(0.420677 -0.00546426 0.00127221)
(0.421073 -0.00566669 0.00131526)
(0.421679 -0.00578877 0.00133382)
(0.42251 -0.00582268 0.00130602)
(0.423593 -0.00575025 0.00122104)
(0.424873 -0.00559396 0.00108424)
(0.42632 -0.00531798 0.00087805)
(0.427911 -0.00493643 0.00060107)
(0.429551 -0.0044481 0.00025126)
(0.431187 -0.00389504 -0.00015299)
(0.43275 -0.00328613 -0.00061315)
(0.434103 -0.00262286 -0.00112959)
(0.435144 -0.00192362 -0.00168767)
(0.435818 -0.00120869 -0.0022651)
(0.436001 -0.00048854 -0.00284856)
(0.435573 0.00021223 -0.00341766)
(0.434445 0.00088529 -0.00394243)
(0.432477 0.00151401 -0.00439528)
(0.429522 0.00208604 -0.00474962)
(0.425432 0.00258746 -0.00498414)
(0.420047 0.00300864 -0.00508327)
(0.413196 0.00334259 -0.00503745)
(0.404666 0.00359261 -0.00484583)
(0.394264 0.00374863 -0.00450313)
(0.381797 0.00380806 -0.00400927)
(0.367086 0.00376847 -0.00336791)
(0.349939 0.00363898 -0.00259852)
(0.330151 0.00344292 -0.00175087)
(0.307712 0.00315807 -0.00082445)
(0.282581 0.00282177 8.579e-05)
(0.254892 0.00243452 0.00092636)
(0.224659 0.0020038 0.00163679)
(0.192379 0.00156051 0.00212942)
(0.158015 0.00112373 0.00233818)
(0.122837 0.00072824 0.00226631)
(0.0872485 0.00039368 0.00193639)
(0.0517492 0.00015144 0.00133435)
(0.0171951 1.832e-05 0.00051236)
(0.437174 -0.0003095 0.00122021)
(0.436809 -0.00092594 0.00122914)
(0.436073 -0.00153411 0.00125067)
(0.435166 -0.0021445 0.00127335)
(0.434199 -0.00273587 0.00133047)
(0.433311 -0.00329553 0.00140323)
(0.432693 -0.00379729 0.00143077)
(0.432344 -0.00421363 0.00141203)
(0.432202 -0.00456528 0.00136722)
(0.432301 -0.00485409 0.00133356)
(0.432581 -0.00507648 0.00134579)
(0.433092 -0.00518632 0.00135867)
(0.433785 -0.00520402 0.00134295)
(0.434664 -0.00512008 0.00127598)
(0.435737 -0.0049293 0.00114819)
(0.436965 -0.00464197 0.00095961)
(0.438336 -0.00426277 0.00070367)
(0.439802 -0.00377268 0.00037074)
(0.441306 -0.00320378 -2.582e-05)
(0.442784 -0.00257884 -0.00047209)
(0.444122 -0.00190649 -0.00097791)
(0.445287 -0.00121176 -0.00152783)
(0.44618 -0.00050464 -0.00210873)
(0.446694 0.00020144 -0.00270698)
(0.446735 0.00088489 -0.00330177)
(0.446244 0.00154321 -0.00387043)
(0.445077 0.00215005 -0.0043839)
(0.443127 0.00269971 -0.00481386)
(0.440254 0.00318319 -0.00513408)
(0.436312 0.00358783 -0.00532176)
(0.431143 0.00390887 -0.0053636)
(0.424549 0.00414878 -0.00525572)
(0.41637 0.00428893 -0.0049809)
(0.40633 0.00434872 -0.0045562)
(0.394242 0.00431458 -0.00397176)
(0.379932 0.00417878 -0.00322585)
(0.363036 0.00398183 -0.00237588)
(0.343467 0.00370627 -0.00142264)
(0.321043 0.00337024 -0.00042142)
(0.295721 0.00297456 0.00058473)
(0.267453 0.00253761 0.00151401)
(0.236469 0.00207819 0.00227321)
(0.202895 0.00160845 0.00280004)
(0.167071 0.00115577 0.00300047)
(0.129875 0.00074635 0.00286636)
(0.0923583 0.00040233 0.00243606)
(0.0548414 0.00015463 0.00167849)
(0.0181665 1.859e-05 0.00063645)
(0.447038 -0.00030455 0.00136253)
(0.446686 -0.00090142 0.00137378)
(0.446008 -0.00148508 0.00140249)
(0.44517 -0.00207254 0.00143044)
(0.444293 -0.00263218 0.00148613)
(0.443495 -0.00315202 0.00155282)
(0.442953 -0.00358896 0.00156025)
(0.442672 -0.003944 0.0015227)
(0.442625 -0.00423186 0.00146358)
(0.44283 -0.00445375 0.00141165)
(0.443213 -0.00458807 0.00138884)
(0.443795 -0.00460281 0.00136351)
(0.444534 -0.00451416 0.00130602)
(0.445419 -0.00432339 0.00119738)
(0.446449 -0.00401912 0.00102155)
(0.4476 -0.0036273 0.0007826)
(0.448857 -0.00314489 0.0004721)
(0.450193 -0.00257726 9.055e-05)
(0.451531 -0.00194224 -0.00035225)
(0.452797 -0.00126791 -0.00084072)
(0.453956 -0.00057151 -0.00137322)
(0.454914 0.00013392 -0.00194701)
(0.455584 0.00083059 -0.00254578)
(0.45592 0.00150703 -0.00315123)
(0.455842 0.00215294 -0.00374424)
(0.455212 0.00274027 -0.0042972)
(0.453983 0.00327763 -0.0047888)
(0.452006 0.00374061 -0.0051837)
(0.449167 0.00413119 -0.00545915)
(0.445321 0.00444057 -0.00559297)
(0.44031 0.00466407 -0.00557166)
(0.433957 0.00479584 -0.00538423)
(0.426037 0.0048469 -0.00503602)
(0.41637 0.00479935 -0.00451001)
(0.404653 0.00467481 -0.00383225)
(0.390659 0.00446969 -0.00300464)
(0.37412 0.0041943 -0.00205524)
(0.354834 0.00384983 -0.00100103)
(0.332516 0.00346046 8.804e-05)
(0.307094 0.00302203 0.00117698)
(0.278482 0.00255735 0.00216644)
(0.24681 0.00207681 0.00297462)
(0.212232 0.00159726 0.00352155)
(0.174966 0.00114254 0.00370037)
(0.136192 0.00073459 0.00350295)
(0.0967928 0.0003946 0.002952)
(0.0574385 0.0001514 0.00202099)
(0.019014 1.816e-05 0.0007629)
(0.45595 -0.000296 0.00150744)
(0.455619 -0.00086601 0.00151823)
(0.455002 -0.00141941 0.0015531)
(0.454224 -0.00196928 0.00158542)
(0.453421 -0.00249147 0.00163757)
(0.452716 -0.00295112 0.00168794)
(0.452242 -0.00332227 0.00167571)
(0.452032 -0.00361419 0.00161783)
(0.452061 -0.00383665 0.00154077)
(0.452343 -0.0039767 0.00146218)
(0.452791 -0.00402252 0.0014009)
(0.453409 -0.00394373 0.00133125)
(0.454157 -0.00375255 0.00122474)
(0.455018 -0.0034569 0.00106659)
(0.455985 -0.00306008 0.00084326)
(0.457036 -0.00257618 0.00055174)
(0.458168 -0.00201554 0.00019012)
(0.459335 -0.00138709 -0.00023872)
(0.46051 -0.00071441 -0.00071757)
(0.461583 -1.87e-05 -0.00123598)
(0.462527 0.00068406 -0.00179197)
(0.463239 0.001376 -0.00238068)
(0.463707 0.0020472 -0.00298432)
(0.463838 0.00268122 -0.00358586)
(0.463553 0.00326266 -0.00416199)
(0.462804 0.00379146 -0.00469337)
(0.461448 0.00423981 -0.00514537)
(0.459408 0.00461729 -0.00549654)
(0.456555 0.00491364 -0.00571785)
(0.452752 0.00512334 -0.00578629)
(0.447846 0.00525062 -0.00569411)
(0.441655 0.0052916 -0.00543159)
(0.433991 0.00523607 -0.00498418)
(0.424577 0.00511152 -0.00437934)
(0.413204 0.00489956 -0.00360055)
(0.399559 0.00461976 -0.00267944)
(0.383379 0.00427607 -0.00163141)
(0.364328 0.00388551 -0.00050374)
(0.342215 0.00344679 0.00067739)
(0.316786 0.00297984 0.00183129)
(0.287943 0.00249591 0.0028749)
(0.255667 0.00200746 0.00372308)
(0.220295 0.00153111 0.00427533)
(0.181905 0.00108763 0.00442541)
(0.141688 0.00069467 0.00415354)
(0.100734 0.00037083 0.00348205)
(0.0598089 0.00014132 0.0023802)
(0.0198138 1.673e-05 0.00089959)
(0.464091 -0.00028142 0.00165238)
(0.463786 -0.00081857 0.00166032)
(0.46323 -0.00133435 0.00170088)
(0.462511 -0.00184029 0.00173518)
(0.461783 -0.00230958 0.00177986)
(0.461156 -0.0027037 0.0018079)
(0.460748 -0.00301012 0.00177477)
(0.460605 -0.00323754 0.0016957)
(0.460697 -0.00338985 0.00159372)
(0.461024 -0.00344242 0.00148077)
(0.461505 -0.00339867 0.001377)
(0.462127 -0.00322532 0.00125557)
(0.462859 -0.00294865 0.00109835)
(0.463677 -0.00256676 0.00089089)
(0.464561 -0.00208615 0.00061547)
(0.465502 -0.0015322 0.00027283)
(0.466489 -0.00091554 -0.00013556)
(0.467497 -0.0002525 -0.00060077)
(0.468474 0.00043825 -0.00111131)
(0.469349 0.00113501 -0.00165203)
(0.470041 0.00182228 -0.00222254)
(0.470529 0.00248693 -0.00281475)
(0.470759 0.00311568 -0.00341394)
(0.470648 0.00369082 -0.00399914)
(0.470169 0.00421064 -0.00455107)
(0.469225 0.00465882 -0.00504289)
(0.467725 0.0050262 -0.00544922)
(0.465579 0.0053155 -0.0057463)
(0.462658 0.0055149 -0.00590101)
(0.458848 0.00563439 -0.00590176)
(0.45399 0.00566238 -0.00572583)
(0.447913 0.00561079 -0.00537591)
(0.440406 0.00547985 -0.00484898)
(0.431246 0.0052651 -0.00413853)
(0.420136 0.00498582 -0.00327262)
(0.406798 0.00464266 -0.00225934)
(0.390914 0.00424719 -0.00112916)
(0.372173 0.00380806 8.798e-05)
(0.35023 0.00334085 0.00133205)
(0.324852 0.00285448 0.00254238)
(0.295837 0.00236302 0.00363037)
(0.26318 0.00187909 0.00449537)
(0.227083 0.00141901 0.00504021)
(0.187738 0.00099832 0.00514861)
(0.146309 0.00063248 0.00479293)
(0.104027 0.00033557 0.00399414)
(0.0617695 0.00012689 0.00272092)
(0.0204579 1.488e-05 0.00102465)