/*--------------------------------*- C++ -*----------------------------------*\
| =========                 |                                                 |
| \\      /  F ield         | OpenFOAM: The Open Source CFD Toolbox           |
|  \\    /   O peration     | Version:  2112                                  |
|   \\  /    A nd           | Website:  www.openfoam.com                      |
|    \\/     M anipulation  |                                                 |
\*---------------------------------------------------------------------------*/
FoamFile
{
    version     2.0;
    format      ascii;
    arch        "LSB;label=32;scalar=64";
    class       volVectorField;
    location    "5000";
    object      U;
}
// * * * * * * * * * * * * * * * * * * * * * * * * * * * * * * * * * * * * * //

dimensions      [0 1 -1 0 0 0 0];

internalField   nonuniform List<vector> 
2304
(
(0.0259839 -1.02909e-17 -6.3652e-17)
(0.0259405 8.30623e-18 1.78901e-18)
(0.0258587 2.54864e-17 1.50093e-18)
(0.025743 1.19895e-17 6.91701e-19)
(0.0255967 9.23312e-18 4.41257e-19)
(0.0254229 8.64171e-18 3.03348e-19)
(0.0252241 6.21462e-18 5.08783e-19)
(0.0250024 4.52797e-18 5.08931e-19)
(0.0247596 4.75347e-18 5.67676e-19)
(0.0244971 2.19788e-18 4.8398e-19)
(0.0242161 8.81703e-19 9.62466e-20)
(0.0239177 1.21118e-18 1.79949e-19)
(0.0236028 6.39207e-19 2.38721e-19)
(0.023272 6.01896e-19 2.20149e-19)
(0.0229258 -6.0901e-19 3.96351e-19)
(0.0225647 -1.60684e-18 2.61059e-19)
(0.022189 -4.61592e-19 2.58344e-20)
(0.021799 1.2452e-19 1.93738e-19)
(0.0213946 -5.31086e-19 9.58881e-20)
(0.0209761 -7.01736e-20 2.58833e-20)
(0.0205433 -6.69287e-19 2.74409e-19)
(0.0200961 -1.08202e-18 7.64167e-21)
(0.0196345 -1.02303e-19 4.50152e-20)
(0.0191582 -4.79271e-20 2.4191e-20)
(0.0186668 -3.22061e-19 3.65646e-20)
(0.0181601 -5.93569e-19 8.64153e-20)
(0.0176375 -6.85046e-19 -9.26597e-20)
(0.0170986 -4.76293e-19 -6.69558e-20)
(0.0165427 -7.12138e-19 -2.77724e-20)
(0.0159693 -1.13923e-18 -5.30461e-20)
(0.0153774 -9.64493e-19 -1.18644e-19)
(0.014766 -4.57314e-19 -9.76382e-20)
(0.0141342 -3.31131e-19 1.43619e-20)
(0.0134806 -3.77144e-19 -7.80622e-20)
(0.0128036 -5.44698e-19 5.61476e-20)
(0.0121014 -7.15458e-19 -7.379e-20)
(0.0113719 -5.69334e-19 -5.2119e-20)
(0.0106125 -5.03048e-19 -4.20332e-21)
(0.00982023 -4.98922e-19 -6.77973e-20)
(0.00899157 -4.05536e-19 -1.06922e-20)
(0.00812262 -2.96036e-19 -1.69745e-20)
(0.0072094 -2.19561e-19 -1.56642e-20)
(0.00624851 -1.78824e-19 -1.81351e-21)
(0.00523836 -1.55405e-19 8.25253e-21)
(0.00418062 -1.14326e-19 1.1479e-20)
(0.00307986 -5.58854e-20 6.44451e-22)
(0.00193618 -2.12427e-20 5.26764e-21)
(0.000720371 4.53395e-22 1.66123e-22)
(0.0716412 1.32296e-17 -4.26467e-17)
(0.071533 5.97573e-17 -8.86512e-19)
(0.0713294 5.8592e-17 -4.17364e-19)
(0.0710407 2.885e-17 7.17184e-19)
(0.0706754 2.27525e-17 1.80534e-19)
(0.0702407 2.10939e-17 1.08051e-18)
(0.0697423 1.51648e-17 1.04865e-18)
(0.0691852 1.08954e-17 1.26012e-19)
(0.0685735 1.2673e-17 -5.96968e-19)
(0.0679105 9.75996e-18 4.48207e-19)
(0.0671989 8.10076e-18 3.10785e-19)
(0.0664411 8.79752e-18 -2.02818e-19)
(0.0656387 6.872e-18 4.96404e-19)
(0.0647933 6.43841e-18 -1.94892e-20)
(0.063906 3.86614e-18 5.1472e-19)
(0.0629774 5.87942e-19 1.14038e-19)
(0.0620082 1.81519e-18 -3.84906e-19)
(0.0609986 2.90422e-18 -8.52715e-21)
(0.0599486 1.86174e-18 1.15762e-19)
(0.0588581 2.75785e-18 -5.151e-19)
(0.0577268 1.51641e-18 9.48235e-19)
(0.0565541 5.61906e-19 -2.18704e-19)
(0.0553393 2.3748e-18 7.21352e-20)
(0.0540815 2.23351e-18 3.84414e-19)
(0.0527795 1.36614e-18 3.54587e-19)
(0.0514321 5.41366e-19 3.52764e-19)
(0.0500376 -1.67026e-19 1.05757e-19)
(0.0485942 -2.88643e-20 -2.61926e-19)
(0.0470999 -6.72595e-19 3.65069e-19)
(0.0455522 -1.88096e-18 3.74907e-19)
(0.0439483 -1.72051e-18 2.40423e-19)
(0.0422849 -5.97438e-19 -7.13126e-20)
(0.0405581 -4.92464e-19 6.12661e-19)
(0.0387634 -8.32684e-19 3.13507e-19)
(0.0368957 -1.11788e-18 2.16662e-19)
(0.0349487 -1.48377e-18 2.98146e-19)
(0.032915 -1.2893e-18 2.34587e-19)
(0.0307858 -1.24692e-18 -4.35564e-21)
(0.0285508 -1.32073e-18 -5.50445e-20)
(0.0261979 -1.16517e-18 -1.48568e-20)
(0.0237131 -9.68064e-19 -1.31683e-19)
(0.0210816 -7.05353e-19 -1.22382e-19)
(0.0182891 -4.73933e-19 -8.00347e-20)
(0.015326 -3.65534e-19 -2.79125e-20)
(0.0121931 -2.83604e-19 -9.8165e-21)
(0.00890703 -1.67308e-19 -1.58953e-20)
(0.0054918 -6.28e-20 -1.15309e-20)
(0.00193618 1.17471e-20 -1.06334e-20)
(0.104558 -1.60132e-17 -7.53061e-17)
(0.104413 2.16218e-17 4.6431e-18)
(0.10414 4.67704e-17 1.01891e-18)
(0.103752 2.07774e-17 2.75452e-18)
(0.103261 1.60427e-17 1.90356e-18)
(0.102676 1.60246e-17 2.72441e-18)
(0.102005 1.04337e-17 1.83772e-18)
(0.101252 6.56576e-18 -1.07157e-19)
(0.100425 8.96419e-18 -8.66274e-19)
(0.0995256 4.799e-18 1.3593e-18)
(0.0985587 2.21322e-18 -2.80104e-19)
(0.0975267 3.07721e-18 -3.37259e-19)
(0.0964316 1.57295e-18 4.28674e-20)
(0.0952752 1.71335e-18 -4.08432e-20)
(0.0940587 -6.89346e-19 1.18395e-18)
(0.0927829 -3.3226e-18 9.60124e-19)
(0.0914484 -8.31736e-19 -5.54141e-19)
(0.0900555 1.13044e-18 -3.27533e-19)
(0.088604 1.12599e-19 6.10575e-19)
(0.0870936 1.33271e-18 -1.08882e-18)
(0.0855238 -1.1231e-19 1.68587e-18)
(0.0838937 -1.17896e-18 -9.9411e-20)
(0.0822022 1.16196e-18 -2.22214e-19)
(0.0804481 1.1623e-18 6.7242e-19)
(0.0786296 2.99156e-19 9.11891e-19)
(0.0767448 -4.2173e-19 6.89482e-19)
(0.0747914 -9.34376e-19 7.3899e-20)
(0.0727667 -5.23734e-19 -5.27356e-19)
(0.0706674 -9.35826e-19 5.42365e-19)
(0.0684899 -2.12099e-18 4.41003e-19)
(0.0662298 -1.99696e-18 2.92826e-19)
(0.063882 -8.13732e-19 3.4357e-19)
(0.0614402 -6.6747e-19 4.96182e-19)
(0.0588973 -1.12576e-18 2.34088e-19)
(0.0562445 -1.34708e-18 4.88394e-19)
(0.0534714 -1.59832e-18 3.74762e-19)
(0.0505652 -1.61078e-18 2.60613e-19)
(0.0475105 -1.56483e-18 -8.44849e-20)
(0.0442882 -1.42903e-18 -8.66189e-20)
(0.040875 -1.31648e-18 -1.49651e-20)
(0.0372424 -1.05884e-18 5.54198e-20)
(0.0333562 -7.44558e-19 -4.15732e-20)
(0.0291764 -5.50924e-19 -1.09506e-19)
(0.0246607 -4.26907e-19 -1.23709e-19)
(0.019773 -3.37161e-19 -6.694e-20)
(0.0145043 -2.11536e-19 -3.50493e-20)
(0.00890703 -6.38608e-20 -3.12818e-21)
(0.00307986 1.30159e-20 -5.21797e-21)
(0.128291 -3.08747e-17 -6.94379e-17)
(0.128121 -3.56368e-18 6.05289e-18)
(0.127799 3.33797e-17 9.7386e-19)
(0.127343 1.29592e-17 3.77814e-18)
(0.126764 9.76118e-18 3.22743e-18)
(0.126074 1.08578e-17 3.06544e-18)
(0.12528 5.9321e-18 1.56236e-18)
(0.12439 2.72354e-18 -1.4186e-19)
(0.123409 5.82916e-18 -1.80349e-18)
(0.122343 1.529e-18 1.7273e-18)
(0.121194 -1.30442e-18 -1.06903e-18)
(0.119966 -2.99188e-19 2.299e-19)
(0.118662 -1.40686e-18 -1.06504e-18)
(0.117282 -8.41088e-19 3.15785e-20)
(0.115829 -2.87317e-18 9.64291e-19)
(0.114304 -5.14603e-18 6.98601e-19)
(0.112706 -2.40343e-18 -1.07723e-18)
(0.111037 2.75923e-19 -1.17268e-18)
(0.109297 -5.8793e-19 -2.87976e-19)
(0.107485 7.078e-19 -1.41493e-18)
(0.105601 -5.44064e-19 1.49163e-18)
(0.103643 -1.84743e-18 -5.84657e-19)
(0.101612 6.15972e-19 -7.00307e-19)
(0.0995048 8.7725e-19 6.23026e-19)
(0.0973209 -3.91725e-21 8.51158e-19)
(0.095058 -7.13345e-19 4.95497e-19)
(0.0927138 -1.18052e-18 2.71658e-19)
(0.0902853 -5.5599e-19 -1.81895e-19)
(0.0877693 -7.72683e-19 6.41517e-19)
(0.0851617 -1.9412e-18 5.97919e-19)
(0.0824577 -1.77477e-18 7.25235e-20)
(0.0796515 -9.33608e-19 3.83134e-19)
(0.0767364 -8.79926e-19 2.36104e-20)
(0.073704 -1.03434e-18 -2.11797e-19)
(0.0705442 -1.22443e-18 1.83262e-19)
(0.0672446 -1.59667e-18 4.05391e-19)
(0.06379 -1.6778e-18 3.01736e-19)
(0.0601612 -1.5892e-18 5.89618e-20)
(0.0563342 -1.34244e-18 -1.00594e-19)
(0.0522782 -1.14962e-18 4.60522e-20)
(0.0479536 -1.0286e-18 3.01218e-19)
(0.0433082 -9.29702e-19 1.79488e-19)
(0.0382726 -7.24377e-19 1.01154e-19)
(0.0327536 -4.68477e-19 -1.59466e-19)
(0.0266294 -3.15137e-19 -1.4685e-19)
(0.019773 -2.10594e-19 -7.82814e-20)
(0.0121931 -9.19054e-20 1.36742e-20)
(0.00418062 -1.56254e-21 -6.81516e-21)
(0.147103 -3.62738e-17 -6.8161e-17)
(0.146911 -1.7182e-17 5.93039e-18)
(0.14655 2.27929e-17 1.20407e-18)
(0.146035 7.35639e-18 4.53748e-18)
(0.145383 5.2384e-18 3.92529e-18)
(0.144604 6.8962e-18 2.53393e-18)
(0.143707 2.89393e-18 1.82602e-18)
(0.142701 2.89537e-20 1.22017e-19)
(0.141591 3.59923e-18 -2.38105e-18)
(0.140383 -3.00678e-19 1.94576e-18)
(0.13908 -3.09286e-18 -1.07495e-18)
(0.137686 -2.20562e-18 9.76796e-19)
(0.136203 -3.16235e-18 -1.77253e-18)
(0.134634 -2.16664e-18 -8.64839e-20)
(0.132981 -3.96628e-18 3.4889e-19)
(0.131243 -5.85304e-18 1.24635e-19)
(0.129423 -3.21095e-18 -2.45788e-18)
(0.12752 -4.02018e-19 -2.24439e-18)
(0.125535 -8.51825e-19 -1.38527e-18)
(0.123468 6.5541e-19 -1.89157e-18)
(0.121319 -6.10184e-19 -9.39982e-20)
(0.119088 -1.97951e-18 -1.27403e-18)
(0.116772 5.36782e-19 -1.05867e-18)
(0.114373 7.90973e-19 -1.63359e-19)
(0.111887 -1.27443e-19 6.47242e-19)
(0.109314 -5.05622e-19 -9.32927e-21)
(0.106651 -8.9971e-19 2.33336e-19)
(0.103897 -5.42002e-19 1.25366e-19)
(0.101047 -7.11358e-19 8.02257e-19)
(0.0980979 -1.86495e-18 9.05348e-19)
(0.0950457 -1.67362e-18 2.31655e-19)
(0.0918845 -9.54157e-19 1.42312e-19)
(0.0886075 -1.00054e-18 2.6421e-20)
(0.0852064 -9.62074e-19 1.10724e-19)
(0.081671 -9.37568e-19 2.19885e-19)
(0.0779884 -1.25599e-18 3.37149e-19)
(0.0741427 -1.54975e-18 5.51811e-19)
(0.0701135 -1.57743e-18 2.54394e-19)
(0.0658745 -1.26875e-18 5.52234e-20)
(0.0613912 -9.6441e-19 3.28906e-20)
(0.0566169 -9.60075e-19 1.17982e-19)
(0.0514869 -9.09918e-19 2.48996e-19)
(0.0459074 -8.31992e-19 1.37605e-19)
(0.0397362 -6.5275e-19 -4.36657e-20)
(0.0327536 -2.82839e-19 -1.39201e-19)
(0.0246607 -1.77121e-19 -1.69298e-19)
(0.015326 -1.0695e-19 -1.1444e-19)
(0.00523836 -1.41767e-20 -7.72028e-20)
(0.162961 -3.65498e-17 -6.64022e-17)
(0.16275 -2.33972e-17 5.71532e-18)
(0.162352 1.51283e-17 1.63335e-18)
(0.161785 3.46418e-18 4.68772e-18)
(0.161066 2.1074e-18 3.84345e-18)
(0.160207 4.25328e-18 1.3793e-18)
(0.159218 1.05462e-18 2.13057e-18)
(0.158107 -1.82023e-18 7.29269e-19)
(0.15688 2.08415e-18 -3.39208e-18)
(0.155543 -1.31519e-18 2.98175e-18)
(0.1541 -4.11524e-18 2.02752e-19)
(0.152556 -3.4305e-18 6.03471e-19)
(0.150912 -4.23302e-18 -1.55651e-18)
(0.149172 -2.93418e-18 -9.75563e-19)
(0.147336 -4.33756e-18 -2.99552e-19)
(0.145407 -6.2163e-18 -2.46924e-19)
(0.143385 -3.96964e-18 -3.37097e-18)
(0.141272 -7.34124e-19 -3.02734e-18)
(0.139068 -9.60813e-19 -1.732e-18)
(0.136773 3.96064e-19 -2.28407e-18)
(0.134388 -4.79962e-19 -1.41943e-18)
(0.131913 -1.68125e-18 -1.32494e-18)
(0.129347 2.80927e-19 -1.90542e-18)
(0.12669 8.14677e-19 -1.41769e-18)
(0.123941 3.39424e-20 2.45225e-19)
(0.121099 -3.4393e-19 -4.6363e-19)
(0.118162 -6.27834e-19 1.93e-19)
(0.115129 -4.05181e-19 1.24627e-20)
(0.111996 -5.45277e-19 7.19004e-19)
(0.108762 -1.75444e-18 1.09645e-18)
(0.105421 -1.69805e-18 3.23727e-19)
(0.101968 -9.1584e-19 -4.62154e-20)
(0.0983982 -7.91072e-19 3.73779e-19)
(0.0947026 -8.83781e-19 1.72888e-19)
(0.0908715 -1.03473e-18 4.67632e-19)
(0.0868923 -1.05733e-18 2.19457e-19)
(0.0827488 -1.32957e-18 5.01242e-19)
(0.0784201 -1.5754e-18 4.31958e-19)
(0.0738785 -1.27192e-18 2.81015e-19)
(0.0690865 -1.0123e-18 1.75528e-19)
(0.0639922 -8.25675e-19 8.15824e-21)
(0.0585196 -7.93962e-19 7.95516e-20)
(0.0525533 -8.39155e-19 1.43215e-20)
(0.0459074 -7.09188e-19 6.45908e-20)
(0.0382726 -4.68975e-19 -5.82327e-20)
(0.0291764 -2.96142e-19 -2.05008e-19)
(0.0182891 -9.35171e-20 -1.38899e-19)
(0.0062485 -3.18345e-21 -9.74174e-20)
(0.17685 -3.42912e-17 -6.38571e-17)
(0.176621 -2.54601e-17 4.44858e-18)
(0.176188 9.41279e-18 2.98239e-18)
(0.175573 7.20384e-19 4.84031e-18)
(0.174792 -7.8093e-20 3.69442e-18)
(0.173858 2.3325e-18 1.97986e-18)
(0.172781 4.72082e-20 2.19542e-18)
(0.171571 -3.22471e-18 1.08568e-18)
(0.170234 1.03361e-18 -4.04359e-18)
(0.168777 -1.56391e-18 3.96184e-18)
(0.167203 -5.01332e-18 2.36613e-18)
(0.165517 -4.33601e-18 -1.34804e-19)
(0.163722 -5.0359e-18 4.19099e-19)
(0.161821 -3.58652e-18 -1.17491e-18)
(0.159815 -4.38765e-18 -4.408e-19)
(0.157707 -6.36932e-18 -1.31516e-19)
(0.155499 -4.47922e-18 -2.58586e-18)
(0.15319 -1.05135e-18 -3.63383e-18)
(0.150784 -1.17162e-18 -1.94581e-18)
(0.148279 1.08313e-19 -2.95834e-18)
(0.145679 -2.75743e-19 -1.55976e-18)
(0.142982 -1.70912e-18 -1.50392e-18)
(0.140189 -1.08644e-19 -2.55362e-18)
(0.1373 1.04756e-18 -2.35884e-18)
(0.134316 2.15793e-19 -5.93371e-19)
(0.131235 -7.27669e-20 -9.55364e-19)
(0.128057 -3.59467e-19 1.33567e-19)
(0.124781 -4.52416e-19 2.7154e-19)
(0.121404 -4.17818e-19 3.69878e-19)
(0.117925 -1.74066e-18 9.2765e-19)
(0.114339 -1.83726e-18 -5.93259e-20)
(0.110643 -7.48211e-19 -4.37554e-19)
(0.106831 -7.51665e-19 -6.11316e-21)
(0.102895 -8.74809e-19 -3.67495e-19)
(0.0988253 -8.88634e-19 4.61827e-19)
(0.0946101 -1.01477e-18 3.84207e-19)
(0.0902328 -1.1072e-18 6.79395e-19)
(0.0856718 -1.403e-18 6.05017e-19)
(0.0808978 -1.21746e-18 5.3212e-19)
(0.0758701 -1.05486e-18 4.91438e-19)
(0.0705307 -9.63451e-19 6.50735e-20)
(0.0647925 -8.44355e-19 -1.25911e-19)
(0.0585196 -8.03772e-19 -1.43003e-19)
(0.0514869 -7.05561e-19 -6.19491e-20)
(0.0433082 -6.04034e-19 -7.89421e-20)
(0.0333562 -4.11045e-19 -1.39263e-20)
(0.0210816 -7.80457e-20 1.01508e-19)
(0.0072094 -1.75888e-20 -4.0049e-20)
(0.189328 -3.11276e-17 -6.2196e-17)
(0.189081 -2.51867e-17 1.87026e-18)
(0.188616 5.19829e-18 2.45043e-18)
(0.187953 -1.64269e-18 4.91428e-18)
(0.187112 -1.62545e-18 3.19465e-18)
(0.186106 9.12629e-19 2.86374e-18)
(0.184945 -9.3915e-19 1.13637e-18)
(0.18364 -4.35767e-18 -1.50223e-19)
(0.182198 3.04427e-19 -4.37403e-18)
(0.180624 -1.54128e-18 2.79351e-18)
(0.178924 -5.85514e-18 3.10901e-18)
(0.177103 -4.87135e-18 1.12528e-19)
(0.175163 -5.39579e-18 9.88187e-19)
(0.173108 -4.42066e-18 -7.89021e-19)
(0.170941 -4.3859e-18 -6.31987e-19)
(0.168663 -6.22769e-18 3.89087e-19)
(0.166277 -5.22465e-18 -1.60261e-18)
(0.163785 -1.70459e-18 -4.08438e-18)
(0.161189 -1.4991e-18 -2.82221e-18)
(0.158489 -9.06224e-20 -3.56829e-18)
(0.155688 -4.68609e-20 -2.36075e-18)
(0.152787 -1.75993e-18 -1.17394e-18)
(0.149786 -5.83641e-19 -1.57904e-18)
(0.146687 9.50582e-19 -2.08873e-18)
(0.14349 4.63893e-19 -1.53315e-18)
(0.140196 1.91398e-19 -1.12409e-18)
(0.136804 -2.90718e-20 -5.79232e-19)
(0.133314 -5.50845e-19 1.12106e-19)
(0.129724 -5.38105e-19 -5.5819e-19)
(0.126034 -1.75144e-18 -3.94595e-19)
(0.12224 -1.99739e-18 -5.01786e-19)
(0.118338 -7.5318e-19 -1.06547e-18)
(0.114323 -7.48575e-19 -1.00829e-18)
(0.110189 -5.43608e-19 -7.72404e-19)
(0.105925 -4.91001e-19 -2.38319e-19)
(0.101519 -7.72261e-19 3.08638e-19)
(0.0969544 -1.03451e-18 5.99753e-19)
(0.0922083 -1.44199e-18 5.83482e-19)
(0.087249 -1.14286e-18 5.76585e-19)
(0.0820319 -1.25647e-18 3.45554e-19)
(0.076492 -1.30759e-18 1.62281e-20)
(0.0705307 -9.74477e-19 -1.22209e-19)
(0.0639922 -7.06902e-19 -4.08532e-19)
(0.0566169 -5.28806e-19 -4.13073e-19)
(0.0479536 -4.02446e-19 -3.66915e-19)
(0.0372424 -3.16666e-19 -2.00708e-19)
(0.0237131 -2.38377e-19 1.73046e-20)
(0.00812262 -4.13759e-20 -1.16693e-19)
(0.200741 -2.75412e-17 -6.01799e-17)
(0.200477 -2.39187e-17 -1.46146e-18)
(0.199979 1.92913e-18 -1.38997e-19)
(0.199271 -3.46459e-18 3.83458e-18)
(0.198371 -2.97437e-18 2.91893e-18)
(0.197294 -5.39286e-19 2.72594e-18)
(0.196051 -1.99413e-18 -1.70137e-18)
(0.194653 -5.2098e-18 -1.09818e-18)
(0.193107 -4.51574e-19 -3.18241e-18)
(0.19142 -1.48281e-18 1.89202e-18)
(0.189598 -6.10962e-18 1.97604e-18)
(0.187644 -5.36682e-18 1.92713e-19)
(0.185564 -5.77477e-18 -7.91047e-19)
(0.183361 -4.94066e-18 -1.90986e-19)
(0.181038 -4.385e-18 4.50801e-19)
(0.178597 -6.11729e-18 3.97832e-19)
(0.176042 -5.96924e-18 -1.58284e-18)
(0.173375 -2.6364e-18 -4.14816e-18)
(0.170599 -1.90024e-18 -2.94437e-18)
(0.167716 -3.78562e-19 -3.31719e-18)
(0.164728 3.63985e-19 -3.16012e-18)
(0.161637 -1.26358e-18 -1.21045e-18)
(0.158445 -9.34529e-19 -3.51199e-21)
(0.155153 3.00377e-19 -1.58855e-18)
(0.151764 2.99339e-19 -1.15356e-18)
(0.148278 3.48008e-19 -8.11407e-19)
(0.144695 7.63188e-20 -9.63964e-19)
(0.141017 -8.14016e-19 -6.527e-19)
(0.137242 -1.08502e-18 -1.32963e-18)
(0.133369 -1.51021e-18 -1.53906e-18)
(0.129397 -1.77808e-18 -1.0923e-18)
(0.125321 -9.74584e-19 -1.78251e-18)
(0.121137 -5.89075e-19 -1.26648e-18)
(0.116838 -4.16182e-19 -7.8412e-19)
(0.112414 -1.80923e-19 -4.61647e-19)
(0.107852 -3.69605e-19 2.60055e-19)
(0.103134 -8.56435e-19 3.08683e-19)
(0.0982366 -1.22455e-18 5.042e-19)
(0.0931237 -1.26155e-18 6.35635e-19)
(0.0877463 -1.39457e-18 6.2744e-20)
(0.0820319 -1.20047e-18 -2.42407e-19)
(0.0758701 -1.07603e-18 -3.08686e-19)
(0.0690865 -8.25673e-19 -3.97026e-19)
(0.0613911 -3.29038e-19 -6.46442e-19)
(0.0522782 -1.84187e-19 -6.12217e-19)
(0.040875 -1.7296e-19 -5.40557e-19)
(0.0261979 -7.94866e-20 -2.16484e-19)
(0.00899157 -1.44748e-21 -1.82602e-19)
(0.21132 -2.42924e-17 -5.57486e-17)
(0.211039 -2.24612e-17 -4.81514e-18)
(0.21051 -6.50438e-19 -3.50247e-18)
(0.209756 -4.97669e-18 3.13639e-18)
(0.208797 -4.17816e-18 2.95609e-18)
(0.207649 -2.26219e-18 2.70578e-18)
(0.206325 -2.96407e-18 -1.13309e-18)
(0.204834 -5.37762e-18 6.54421e-19)
(0.203186 -1.1348e-18 -5.70604e-19)
(0.201387 -2.05513e-18 2.21925e-18)
(0.199444 -6.49603e-18 9.54211e-19)
(0.197361 -5.79073e-18 7.68664e-20)
(0.195144 -5.76505e-18 -1.83133e-18)
(0.192796 -4.73123e-18 3.45744e-19)
(0.190321 -4.70972e-18 1.79191e-18)
(0.187723 -6.54079e-18 1.05133e-18)
(0.185006 -6.69028e-18 -1.67192e-18)
(0.182173 -3.25499e-18 -3.05166e-18)
(0.179226 -2.15282e-18 -2.25185e-18)
(0.17617 -9.43949e-19 -2.20384e-18)
(0.173007 2.61982e-19 -2.35357e-18)
(0.16974 -6.13526e-19 -1.9839e-18)
(0.166371 -1.1716e-18 9.12175e-20)
(0.162904 -2.84045e-19 -1.79115e-18)
(0.159341 3.85031e-19 -4.6524e-19)
(0.155683 5.93821e-20 -6.81416e-19)
(0.151931 -3.0522e-19 -1.47798e-18)
(0.148087 -1.13836e-18 -9.46867e-19)
(0.14415 -1.38794e-18 -1.20085e-18)
(0.14012 -1.52895e-18 -1.91546e-18)
(0.135995 -1.84696e-18 -1.29047e-18)
(0.131772 -8.0051e-19 -1.04855e-18)
(0.127446 -1.85845e-19 -6.16111e-19)
(0.123009 -1.89024e-19 -5.07351e-20)
(0.118452 1.22835e-19 1.71064e-19)
(0.113761 -2.54925e-19 3.09453e-19)
(0.108916 -7.88123e-19 1.1783e-19)
(0.103889 -1.01656e-18 1.46539e-19)
(0.0986437 -1.4251e-18 7.74361e-20)
(0.0931237 -1.85095e-18 -2.87726e-19)
(0.087249 -1.39306e-18 -4.51984e-19)
(0.0808978 -8.84057e-19 -4.86042e-19)
(0.0738784 -7.57873e-19 -2.61001e-19)
(0.0658745 -4.19781e-19 -3.87166e-19)
(0.0563342 -7.84489e-20 -4.55272e-19)
(0.0442882 -4.69162e-20 -3.08438e-19)
(0.0285508 1.03376e-19 -6.17605e-20)
(0.00982023 8.64139e-21 -1.16046e-19)
(0.221226 -2.15429e-17 -5.15309e-17)
(0.220928 -2.14786e-17 -6.65342e-18)
(0.220366 -2.63413e-18 -8.073e-18)
(0.219566 -6.01113e-18 3.52458e-18)
(0.218549 -5.47803e-18 2.91284e-18)
(0.21733 -3.47978e-18 2.891e-18)
(0.215924 -3.57774e-18 1.18064e-18)
(0.214342 -5.89315e-18 2.13872e-18)
(0.212592 -2.20441e-18 2.07042e-18)
(0.210682 -2.8437e-18 4.15996e-18)
(0.208618 -6.83082e-18 2.88215e-18)
(0.206408 -6.17006e-18 7.38039e-19)
(0.204055 -5.88634e-18 -1.99751e-18)
(0.201566 -4.45441e-18 5.8485e-20)
(0.198944 -4.75563e-18 2.897e-18)
(0.196194 -7.12685e-18 8.24832e-19)
(0.19332 -7.28385e-18 -1.95208e-18)
(0.190328 -3.76996e-18 -7.4979e-19)
(0.187219 -2.52634e-18 -1.27043e-18)
(0.184 -1.29185e-18 -1.47413e-18)
(0.180673 -4.02788e-19 -2.05527e-18)
(0.177243 -7.25625e-19 -2.07714e-18)
(0.173713 -1.29978e-18 -1.31968e-18)
(0.170086 -5.49793e-19 -1.42449e-18)
(0.166365 4.06466e-19 -8.94723e-19)
(0.162553 -4.77043e-19 -7.32848e-19)
(0.158651 -4.86917e-19 -1.63681e-18)
(0.154662 -1.04877e-18 -1.07238e-18)
(0.150585 -2.04108e-18 -1.49258e-18)
(0.146419 -1.63949e-18 -1.51985e-18)
(0.142164 -1.05779e-18 -9.67288e-19)
(0.137817 -5.50578e-19 2.20123e-20)
(0.133371 -1.22629e-19 -4.88625e-20)
(0.128819 -1.273e-19 1.59406e-19)
(0.12415 -1.60474e-19 1.35008e-19)
(0.119349 -6.11384e-19 -1.16348e-19)
(0.114394 -9.76225e-19 -6.07373e-19)
(0.109255 -1.08928e-18 -5.34755e-19)
(0.103889 -1.46927e-18 -7.50595e-19)
(0.0982366 -1.64355e-18 -9.28373e-19)
(0.0922083 -1.11364e-18 -8.36146e-19)
(0.0856718 -6.65629e-19 -5.42379e-19)
(0.0784201 -5.29315e-19 -3.79755e-19)
(0.0701135 -4.61279e-19 -2.98447e-19)
(0.0601612 -2.33502e-19 -3.70619e-19)
(0.0475104 -6.94875e-20 -9.98646e-20)
(0.0307858 -6.97547e-22 1.26577e-19)
(0.0106125 -1.68976e-20 -4.5012e-20)
(0.230576 -1.90275e-17 -4.72506e-17)
(0.230261 -2.08958e-17 -8.55396e-18)
(0.229666 -4.22671e-18 -1.03356e-17)
(0.228819 -6.62354e-18 1.70849e-18)
(0.227743 -6.86563e-18 9.07947e-19)
(0.226453 -4.62178e-18 2.59671e-18)
(0.224964 -4.39482e-18 1.11068e-18)
(0.223289 -6.07856e-18 4.49057e-19)
(0.221437 -2.54867e-18 2.70135e-18)
(0.219415 -3.50673e-18 3.79687e-18)
(0.217233 -7.65326e-18 4.5927e-18)
(0.214896 -7.13428e-18 1.49977e-18)
(0.21241 -6.17894e-18 -2.00656e-18)
(0.209782 -3.79809e-18 -7.61852e-19)
(0.207017 -5.09948e-18 2.82303e-18)
(0.204119 -8.19321e-18 -2.98752e-19)
(0.201096 -7.09307e-18 -1.33748e-18)
(0.197951 -3.77063e-18 2.81267e-19)
(0.19469 -3.33667e-18 -3.80402e-19)
(0.191317 -2.23336e-18 -1.0825e-18)
(0.187838 -1.10129e-18 -2.78139e-18)
(0.184257 -1.06212e-18 -1.93819e-18)
(0.180579 -1.23585e-18 -2.426e-18)
(0.176807 -5.57127e-19 -1.38395e-18)
(0.172944 2.55211e-19 -1.3197e-18)
(0.168995 -7.52729e-19 -1.30722e-18)
(0.164962 -9.70802e-19 -6.89676e-19)
(0.160845 -1.48632e-18 -1.27848e-18)
(0.156646 -1.94671e-18 -1.57399e-18)
(0.152365 -1.36545e-18 -1.28732e-18)
(0.147999 -8.87947e-19 -7.34758e-19)
(0.143546 -4.23886e-19 1.0764e-19)
(0.138999 -5.00269e-19 -2.1586e-20)
(0.134349 -4.32178e-19 -3.91725e-19)
(0.129585 -4.16403e-19 -2.66438e-19)
(0.124688 -1.00405e-18 -4.40788e-19)
(0.119636 -1.02257e-18 -6.75467e-19)
(0.114394 -8.62032e-19 -7.6457e-19)
(0.108916 -1.4895e-18 -1.01676e-18)
(0.103134 -1.67876e-18 -8.85243e-19)
(0.0969544 -7.63756e-19 -6.27453e-19)
(0.0902328 -2.55336e-19 -5.95074e-19)
(0.0827488 -4.20871e-19 -5.12218e-19)
(0.0741427 -4.46344e-19 -4.16094e-19)
(0.06379 -1.86344e-19 -4.08474e-19)
(0.0505652 -8.36124e-20 -3.79394e-19)
(0.032915 -2.27475e-19 -1.67525e-19)
(0.0113719 -8.06874e-20 -2.28267e-19)
(0.239457 -1.70772e-17 -4.39851e-17)
(0.239124 -2.05095e-17 -1.20411e-17)
(0.238496 -5.84842e-18 -1.06907e-17)
(0.237602 -7.61054e-18 -7.86902e-19)
(0.236464 -7.87796e-18 -2.99914e-18)
(0.235102 -5.40416e-18 -1.14315e-18)
(0.23353 -5.51037e-18 5.44289e-19)
(0.231762 -6.51819e-18 2.04823e-19)
(0.229806 -3.05965e-18 1.97758e-18)
(0.227674 -3.78237e-18 3.00172e-20)
(0.225373 -7.72428e-18 2.9702e-18)
(0.22291 -8.02464e-18 2.08711e-18)
(0.220293 -6.79617e-18 -1.30584e-18)
(0.217529 -3.51775e-18 -1.02777e-18)
(0.214624 -5.29588e-18 1.7969e-18)
(0.211585 -8.56882e-18 -6.42664e-19)
(0.208417 -6.9799e-18 -7.07198e-19)
(0.205127 -4.14001e-18 -4.40671e-19)
(0.201722 -3.91375e-18 -5.78169e-19)
(0.198206 -3.31516e-18 -2.22564e-18)
(0.194585 -1.92e-18 -2.87655e-18)
(0.190866 -1.37566e-18 -2.748e-18)
(0.187053 -1.42393e-18 -2.93138e-18)
(0.18315 -5.57342e-19 -1.67586e-18)
(0.179162 -1.76092e-19 -1.55034e-18)
(0.175091 -5.87411e-19 -1.65845e-18)
(0.170942 -1.00222e-18 -1.06746e-18)
(0.166715 -2.09627e-18 -1.02186e-18)
(0.162412 -2.40669e-18 -6.59275e-19)
(0.158031 -1.41571e-18 -1.70309e-18)
(0.153571 -4.24434e-19 -5.62245e-19)
(0.149027 -3.94562e-19 -1.7854e-19)
(0.144394 -9.02676e-19 -3.90381e-19)
(0.13966 -6.57236e-19 -3.89442e-19)
(0.134812 -3.89797e-19 -6.73217e-19)
(0.12983 -9.50384e-19 -3.22015e-19)
(0.124688 -1.15277e-18 2.26275e-19)
(0.119349 -1.2243e-18 -6.96656e-19)
(0.113761 -1.36081e-18 -1.18708e-18)
(0.107852 -1.00633e-18 -7.82103e-19)
(0.101519 -6.49512e-19 -4.79893e-19)
(0.0946101 -4.80497e-19 -6.44546e-19)
(0.0868923 -3.2141e-19 -6.57529e-19)
(0.0779884 -4.32039e-19 -7.37004e-19)
(0.0672446 -5.68996e-19 -8.41154e-19)
(0.0534714 -4.39744e-19 -9.60106e-19)
(0.0349487 -1.90054e-19 -6.9954e-19)
(0.0121014 -3.81029e-20 -5.17737e-19)
(0.247936 -1.55062e-17 -4.19809e-17)
(0.247585 -2.00328e-17 -1.50499e-17)
(0.246923 -6.9239e-18 -1.13614e-17)
(0.24598 -8.94131e-18 3.26939e-19)
(0.244781 -9.59418e-18 -6.66113e-18)
(0.243345 -5.6992e-18 -4.45452e-18)
(0.241688 -5.46312e-18 -7.00732e-20)
(0.239825 -6.8272e-18 5.49902e-19)
(0.237766 -4.28375e-18 1.04632e-18)
(0.235522 -4.56135e-18 -1.20581e-18)
(0.233102 -7.20325e-18 1.05272e-18)
(0.230516 -8.21716e-18 3.92361e-18)
(0.22777 -7.30826e-18 -3.32647e-19)
(0.224873 -3.41832e-18 -4.04506e-19)
(0.221832 -5.63763e-18 -1.21547e-18)
(0.218656 -9.07468e-18 -1.17922e-18)
(0.215351 -7.10224e-18 -1.37281e-18)
(0.211924 -4.46516e-18 -1.00339e-18)
(0.208383 -4.88648e-18 -1.73918e-18)
(0.204734 -4.15814e-18 -4.28523e-18)
(0.200983 -2.40453e-18 -3.92279e-18)
(0.197137 -1.85145e-18 -3.93397e-18)
(0.193202 -1.20892e-18 -3.39385e-18)
(0.189182 -5.55046e-19 -2.34932e-18)
(0.185082 -5.14318e-19 -2.19523e-18)
(0.180905 -1.06315e-18 -1.00308e-18)
(0.176655 -1.18569e-18 -1.81533e-18)
(0.172333 -1.67438e-18 -1.0304e-18)
(0.167939 -2.85183e-18 1.40503e-19)
(0.163474 -1.69351e-18 -5.42913e-19)
(0.158933 -1.98861e-19 -2.47587e-19)
(0.154312 -6.75856e-19 -5.38012e-19)
(0.149603 -9.56642e-19 -6.57014e-19)
(0.144795 -9.17813e-19 -4.91423e-19)
(0.139872 -4.46586e-19 -9.00072e-19)
(0.134812 -8.54361e-20 -7.14174e-19)
(0.129585 -1.38564e-18 -2.45332e-19)
(0.12415 -2.14799e-18 -7.23431e-19)
(0.118452 -1.2527e-18 -9.76894e-19)
(0.112414 -5.65968e-19 -1.08961e-18)
(0.105925 -3.18714e-19 -8.95485e-19)
(0.0988253 -2.1754e-19 -6.71851e-19)
(0.0908715 -2.56762e-19 -8.22392e-19)
(0.081671 -4.60166e-19 -1.07296e-18)
(0.0705442 -3.31571e-19 -1.17293e-18)
(0.0562445 -2.28708e-19 -1.05756e-18)
(0.0368957 -9.23842e-21 -6.21803e-19)
(0.0128036 1.78984e-20 -4.46324e-19)
(0.256064 -1.41378e-17 -3.75935e-17)
(0.255695 -1.95765e-17 -1.61572e-17)
(0.254998 -7.29706e-18 -1.10091e-17)
(0.254005 -1.04528e-17 -3.01709e-19)
(0.252742 -1.15466e-17 -7.8684e-18)
(0.251231 -5.69102e-18 -2.90333e-18)
(0.249489 -5.70949e-18 -2.95205e-19)
(0.24753 -7.43466e-18 -6.29881e-20)
(0.245367 -5.08684e-18 -7.32997e-21)
(0.243012 -5.01306e-18 -8.63456e-19)
(0.240474 -6.20533e-18 8.59692e-20)
(0.237765 -8.22865e-18 6.0389e-18)
(0.234892 -8.36332e-18 2.34436e-18)
(0.231866 -4.563e-18 -1.85247e-19)
(0.228694 -6.08432e-18 -3.58853e-18)
(0.225387 -8.62021e-18 -1.44945e-18)
(0.221951 -7.1209e-18 -2.09969e-18)
(0.218395 -5.08071e-18 -9.59412e-19)
(0.214727 -6.13125e-18 -2.96379e-18)
(0.210955 -5.09311e-18 -4.10328e-18)
(0.207085 -2.65556e-18 -4.71072e-18)
(0.203125 -1.82656e-18 -4.19017e-18)
(0.19908 -1.33561e-18 -3.58587e-18)
(0.194956 -7.80109e-19 -2.2841e-18)
(0.190757 -6.08387e-20 -1.37796e-18)
(0.186488 -1.06116e-18 -8.34486e-19)
(0.18215 -1.74377e-18 -2.39582e-18)
(0.177746 -1.19129e-18 -9.20295e-19)
(0.173276 -2.41687e-18 -2.17174e-19)
(0.168737 -2.18588e-18 -1.99822e-20)
(0.164127 -9.68594e-19 -9.35866e-19)
(0.159438 -1.09482e-18 -1.07721e-18)
(0.154663 -1.04389e-18 -9.41878e-19)
(0.149788 -1.0424e-18 -8.60064e-19)
(0.144795 -6.30585e-19 -8.94721e-19)
(0.13966 -2.4572e-19 -1.10089e-18)
(0.134349 -9.95971e-19 -1.5278e-18)
(0.128819 -1.65908e-18 -1.04856e-18)
(0.123009 -1.48419e-18 -6.62581e-19)
(0.116838 -5.71223e-19 -6.72109e-19)
(0.110189 3.12898e-19 -7.28778e-19)
(0.102895 1.28579e-19 -8.60849e-19)
(0.0947026 -2.50599e-19 -1.20736e-18)
(0.0852064 -2.79819e-19 -1.22838e-18)
(0.073704 -1.60286e-19 -1.11735e-18)
(0.0588973 -1.62746e-19 -1.13978e-18)
(0.0387634 -6.52402e-21 -7.81198e-19)
(0.0134806 -4.49022e-20 -5.19013e-19)
(0.263884 -1.33187e-17 -3.60175e-17)
(0.263495 -1.93985e-17 -1.47357e-17)
(0.262762 -7.98745e-18 -1.03993e-17)
(0.261718 -1.18744e-17 -4.75576e-18)
(0.260391 -1.23768e-17 -4.82656e-18)
(0.258803 -5.72555e-18 -1.83764e-18)
(0.256974 -6.34263e-18 -3.6891e-19)
(0.254918 -8.00158e-18 -5.40085e-19)
(0.25265 -5.87075e-18 -9.48305e-19)
(0.250184 -5.59625e-18 -1.00189e-18)
(0.247529 -5.03226e-18 1.55457e-19)
(0.244699 -7.27079e-18 4.73134e-18)
(0.241703 -9.6075e-18 6.47407e-18)
(0.238551 -6.26175e-18 -6.61373e-19)
(0.235254 -6.4793e-18 -2.07889e-18)
(0.231821 -8.59414e-18 -1.55301e-18)
(0.228262 -7.16834e-18 -2.30421e-18)
(0.224586 -5.66552e-18 -1.52931e-18)
(0.220801 -6.89962e-18 -4.0617e-18)
(0.216916 -5.64166e-18 -3.42973e-18)
(0.212938 -3.21281e-18 -4.9868e-18)
(0.208875 -2.05626e-18 -4.14171e-18)
(0.204732 -1.04354e-18 -3.46473e-18)
(0.200516 -1.71899e-19 -1.98596e-18)
(0.196231 -3.24463e-19 -1.18124e-18)
(0.191881 -2.61539e-18 -1.9791e-18)
(0.187468 -2.06114e-18 -1.81737e-18)
(0.182993 -6.7586e-19 -2.17485e-19)
(0.178456 -2.50213e-18 -1.06092e-18)
(0.173855 -2.73305e-18 -1.04651e-19)
(0.169184 -1.54705e-18 -1.20559e-18)
(0.164436 -9.92182e-19 -1.55524e-18)
(0.159601 -9.87381e-19 -1.67795e-18)
(0.154663 -9.99266e-19 -1.21641e-18)
(0.149603 -7.39823e-19 -9.16804e-19)
(0.144393 -7.6235e-19 -1.04794e-18)
(0.138998 -1.13979e-18 -1.46253e-18)
(0.133371 -9.67281e-19 -1.07176e-18)
(0.127446 -7.47598e-19 -7.29428e-19)
(0.121137 -5.36194e-19 -2.64535e-19)
(0.114323 -2.65694e-19 -4.05532e-19)
(0.106831 -2.83764e-19 -7.79934e-19)
(0.0983982 1.4679e-19 -9.53743e-19)
(0.0886075 6.67383e-19 -8.09283e-19)
(0.0767364 4.09317e-19 -9.23174e-19)
(0.0614402 4.93896e-20 -9.23953e-19)
(0.0405581 1.34906e-20 -7.34468e-19)
(0.0141342 -1.75163e-20 -3.78207e-19)
(0.271427 -1.15645e-17 -3.7117e-17)
(0.271019 -1.83374e-17 -1.30885e-17)
(0.270248 -9.43186e-18 -1.1599e-17)
(0.269152 -1.23275e-17 -3.23366e-18)
(0.267759 -1.27178e-17 -2.40877e-18)
(0.266093 -6.52202e-18 -1.76425e-18)
(0.264175 -7.05537e-18 -4.28318e-19)
(0.262022 -8.81421e-18 -3.00465e-18)
(0.25965 -6.31981e-18 -1.93325e-18)
(0.257072 -5.57302e-18 6.22659e-20)
(0.254303 -4.51753e-18 7.72819e-19)
(0.251354 -5.76776e-18 2.31136e-18)
(0.248237 -1.04869e-17 6.99725e-18)
(0.244965 -8.18672e-18 -2.18078e-18)
(0.241548 -6.69045e-18 -2.5206e-18)
(0.237997 -8.99747e-18 -1.5947e-18)
(0.234322 -7.53213e-18 -1.93937e-18)
(0.230534 -6.73039e-18 -1.54898e-18)
(0.226641 -7.41913e-18 -5.49962e-18)
(0.222653 -6.13571e-18 -4.30676e-18)
(0.218578 -3.76164e-18 -6.56472e-18)
(0.214423 -1.8561e-18 -4.77852e-18)
(0.210194 -1.07561e-18 -3.54424e-18)
(0.205898 -4.17088e-19 -2.22382e-18)
(0.201538 -9.74869e-19 -2.15817e-18)
(0.197119 -2.28305e-18 -2.11694e-18)
(0.192641 -1.20274e-18 -9.45768e-19)
(0.188105 -1.39287e-18 -1.07346e-18)