/*--------------------------------*- C++ -*----------------------------------*\
| =========                 |                                                 |
| \\      /  F ield         | OpenFOAM: The Open Source CFD Toolbox           |
|  \\    /   O peration     | Version:  2112                                  |
|   \\  /    A nd           | Website:  www.openfoam.com                      |
|    \\/     M anipulation  |                                                 |
\*---------------------------------------------------------------------------*/
FoamFile
{
    version     2.0;
    format      ascii;
    arch        "LSB;label=32;scalar=64";
    class       volVectorField;
    location    "20000";
    object      U;
}
// * * * * * * * * * * * * * * * * * * * * * * * * * * * * * * * * * * * * * //

dimensions      [0 1 -1 0 0 0 0];

internalField   nonuniform List<vector> 
2304
(
(0.0256243 1.92898e-17 4.2647e-18)
(0.025589 5.68026e-17 1.12015e-17)
(0.0255225 5.18167e-17 3.04203e-18)
(0.0254279 3.24786e-17 1.65894e-18)
(0.0253081 2.79342e-17 1.29435e-18)
(0.0251652 2.37282e-17 1.18729e-18)
(0.0250009 1.99093e-17 8.02773e-19)
(0.0248167 1.56067e-17 6.88474e-19)
(0.024614 1.52768e-17 4.29284e-19)
(0.0243936 1.26581e-17 2.77834e-19)
(0.0241564 1.0653e-17 6.06637e-19)
(0.0239032 9.94007e-18 5.60512e-19)
(0.0236344 8.71581e-18 5.35658e-19)
(0.0233506 9.06104e-18 1.01347e-19)
(0.0230519 8.80962e-18 7.6766e-21)
(0.0227387 8.60082e-18 1.67218e-19)
(0.0224108 9.64274e-18 -9.59411e-20)
(0.0220683 1.07213e-17 2.40885e-19)
(0.0217108 9.41385e-18 1.886e-19)
(0.0213376 9.62555e-18 1.31963e-19)
(0.0209475 9.19619e-18 3.31682e-19)
(0.020539 8.3501e-18 2.52545e-19)
(0.0201111 8.68832e-18 3.47983e-19)
(0.0196632 8.4049e-18 3.57025e-19)
(0.0191943 7.61427e-18 4.7708e-19)
(0.0187025 6.79994e-18 4.42953e-19)
(0.0181861 6.19717e-18 5.08743e-19)
(0.0176437 5.65296e-18 4.84309e-19)
(0.017074 4.97853e-18 4.68389e-19)
(0.0164758 4.26815e-18 4.12157e-19)
(0.0158476 3.80215e-18 3.30728e-19)
(0.0151875 3.53851e-18 3.11783e-19)
(0.014494 3.20143e-18 3.89349e-19)
(0.0137653 2.90169e-18 4.10672e-19)
(0.0130005 2.42084e-18 4.39452e-19)
(0.012199 1.92006e-18 2.84686e-19)
(0.0113612 1.82569e-18 2.77738e-19)
(0.0104889 1.61807e-18 2.64821e-19)
(0.00958557 1.30326e-18 2.50295e-19)
(0.00865616 1.1187e-18 2.27732e-19)
(0.00770683 9.23918e-19 2.11248e-19)
(0.00674385 7.31169e-19 1.47998e-19)
(0.00577226 5.35833e-19 1.85732e-19)
(0.00479444 3.37406e-19 1.64513e-19)
(0.00380883 1.95358e-19 1.34697e-19)
(0.00280823 1.0215e-19 1.15005e-19)
(0.00177533 2.14951e-20 6.25934e-20)
(0.00066756 1.75117e-20 1.99835e-21)
(0.0775212 -3.30794e-17 -1.571e-16)
(0.0774137 -5.71609e-17 -1.65162e-17)
(0.0772112 -5.60516e-17 -2.69246e-18)
(0.0769236 -5.57328e-17 6.79395e-19)
(0.0765589 -3.64471e-17 2.43159e-19)
(0.0761238 -2.74542e-17 2.07555e-19)
(0.0756238 -2.31985e-17 6.56355e-19)
(0.0750634 -2.56798e-17 1.0077e-18)
(0.0744463 -2.03123e-17 -2.79026e-19)
(0.0737755 -2.09787e-17 9.65358e-19)
(0.0730538 -2.19607e-17 -2.32596e-19)
(0.072283 -1.86251e-17 2.0831e-19)
(0.071465 -1.69519e-17 -5.08405e-19)
(0.070601 -1.35188e-17 -3.65312e-19)
(0.069692 -1.25996e-17 2.72518e-19)
(0.0687385 -1.2666e-17 -1.15191e-19)
(0.0677407 -8.47289e-18 -1.14202e-18)
(0.0666983 -3.78311e-18 -2.28682e-19)
(0.06561 -5.01255e-18 3.19661e-19)
(0.0644741 -2.72318e-18 -9.47001e-19)
(0.0632869 -2.44769e-18 1.16511e-19)
(0.0620437 -3.14846e-18 -5.27914e-19)
(0.0607414 -6.77688e-19 -2.08681e-19)
(0.0593782 7.75021e-19 -3.5558e-19)
(0.057951 9.44951e-19 -2.77802e-19)
(0.0564546 4.14903e-19 -3.11114e-19)
(0.0548832 4.17585e-19 -6.56431e-19)
(0.0532324 5.18993e-19 -3.86211e-19)
(0.0514989 -2.51601e-20 -1.5916e-19)
(0.0496789 -5.38465e-19 -1.58094e-19)
(0.0477674 -6.11394e-19 -4.98119e-19)
(0.0457594 -2.15297e-19 -4.99964e-19)
(0.0436494 -5.14405e-20 -1.52032e-19)
(0.0414328 -1.13917e-20 -4.19225e-19)
(0.039106 -2.24337e-19 -2.63952e-19)
(0.0366673 -5.74616e-19 -3.27438e-19)
(0.0341179 -1.22295e-19 -3.52122e-19)
(0.031463 5.99814e-20 -3.29409e-19)
(0.0287127 -9.21089e-20 -3.2842e-19)
(0.0258821 1.53035e-20 -3.41057e-19)
(0.0229904 2.83203e-20 -2.77281e-19)
(0.0200573 3.9265e-20 -2.28488e-19)
(0.0170994 2.76868e-20 -2.59024e-19)
(0.0141253 -6.47655e-20 -2.86784e-19)
(0.0111326 -8.59269e-20 -3.22618e-19)
(0.00810472 -1.22371e-19 -3.68075e-19)
(0.00500674 -1.45275e-19 -5.13794e-19)
(0.00177533 7.67759e-20 -6.40964e-20)
(0.130966 -9.7533e-18 -1.0149e-16)
(0.130784 1.33525e-17 -7.40218e-18)
(0.130442 1.15461e-17 -1.59887e-18)
(0.129957 -1.01324e-17 2.32349e-18)
(0.129341 1.0114e-18 1.42614e-18)
(0.128606 3.95989e-18 1.66557e-18)
(0.127761 3.38366e-18 1.26533e-18)
(0.126814 -3.85784e-18 1.56728e-18)
(0.125771 7.38034e-19 5.42707e-19)
(0.124638 -3.40858e-18 2.71124e-18)
(0.123417 -7.31363e-18 -4.43466e-19)
(0.122114 -5.53834e-18 1.17703e-18)
(0.120731 -5.57934e-18 -1.19283e-18)
(0.119269 -1.93488e-18 -4.35081e-19)
(0.117731 -1.41256e-18 4.61435e-19)
(0.116117 -1.87246e-18 1.52722e-19)
(0.114429 3.14766e-18 -2.03934e-18)
(0.112664 8.94716e-18 -8.10844e-19)
(0.110821 6.42933e-18 3.04071e-19)
(0.108898 8.72926e-18 -1.59131e-18)
(0.106887 8.53565e-18 7.0224e-19)
(0.104781 6.87122e-18 -9.86627e-19)
(0.102575 9.28592e-18 -3.50085e-19)
(0.100265 1.02077e-17 -1.25665e-20)
(0.0978467 9.58918e-18 6.22891e-19)
(0.095311 8.15179e-18 8.29887e-19)
(0.0926478 7.45258e-18 3.03378e-19)
(0.0898495 7.01353e-18 2.71887e-22)
(0.0869108 5.89773e-18 3.75902e-19)
(0.0838253 4.63461e-18 3.53942e-19)
(0.080585 4.00031e-18 -1.20421e-19)
(0.0771806 4.1344e-18 1.24214e-19)
(0.0736032 3.79932e-18 -1.81361e-19)
(0.0698446 3.49941e-18 -3.74953e-19)
(0.0658985 2.87407e-18 -1.7664e-19)
(0.0617614 2.06537e-18 -4.52987e-20)
(0.0574343 2.19419e-18 -1.38806e-19)
(0.052925 2.04064e-18 -3.22905e-19)
(0.04825 1.64365e-18 -2.80054e-19)
(0.0434348 1.48696e-18 -1.16369e-19)
(0.0385128 1.29489e-18 -3.18478e-20)
(0.0335205 1.00856e-18 1.34057e-19)
(0.02849 6.98422e-19 2.69911e-20)
(0.0234408 3.87141e-19 -1.65591e-19)
(0.018375 2.52541e-19 -3.07595e-19)
(0.0132752 9.096e-20 -4.3957e-19)
(0.00810472 -6.22285e-20 -7.34866e-19)
(0.00280823 1.11078e-19 -1.97967e-20)
(0.184303 -1.54114e-17 -8.39176e-17)
(0.184053 2.40997e-17 -1.01508e-17)
(0.183582 3.42197e-17 -3.62794e-18)
(0.182913 5.26458e-18 3.4991e-18)
(0.182064 1.38115e-17 1.75372e-18)
(0.181051 1.47315e-17 3.01528e-18)
(0.179885 1.24705e-17 2.2466e-18)
(0.178578 3.46417e-18 2.12654e-18)
(0.177137 8.27191e-18 1.0357e-18)
(0.175569 1.93107e-18 4.79892e-18)
(0.17388 -3.46407e-18 -6.41421e-19)
(0.172075 -2.48221e-18 2.06124e-18)
(0.170156 -3.28534e-18 -3.83644e-18)
(0.168128 1.09832e-18 -4.54856e-19)
(0.165992 1.38701e-18 -7.06377e-19)
(0.163748 7.09013e-19 -4.32172e-19)
(0.161397 6.06366e-18 -3.80721e-18)
(0.158938 1.29354e-17 -2.94543e-18)
(0.156369 1.01303e-17 -2.21617e-19)
(0.153684 1.2567e-17 -2.06023e-18)
(0.150876 1.21147e-17 7.83406e-19)
(0.147932 9.97588e-18 -1.51947e-18)
(0.144844 1.27277e-17 -6.90769e-19)
(0.141609 1.35574e-17 -3.13524e-19)
(0.138219 1.26906e-17 1.3707e-18)
(0.134662 1.06372e-17 8.535e-19)
(0.130923 9.53327e-18 4.44623e-19)
(0.12699 9.15411e-18 -1.25262e-20)
(0.122857 7.96817e-18 7.20058e-19)
(0.118514 6.39558e-18 8.94054e-19)
(0.113949 5.69196e-18 8.90862e-19)
(0.109151 5.50148e-18 5.65502e-19)
(0.104104 4.86712e-18 -5.28697e-19)
(0.0987966 4.70476e-18 -7.92629e-19)
(0.0932193 4.22757e-18 -2.60633e-19)
(0.0873652 3.31428e-18 2.81387e-19)
(0.0812334 2.92196e-18 1.98826e-19)
(0.0748323 2.66212e-18 -3.11253e-19)
(0.0681822 2.48676e-18 -3.45314e-19)
(0.0613183 2.29138e-18 -5.88463e-20)
(0.05429 1.88095e-18 2.68825e-19)
(0.0471554 1.38003e-18 3.26566e-19)
(0.0399699 7.63433e-19 9.67813e-20)
(0.0327728 3.65199e-19 -2.65004e-19)
(0.0255782 3.08812e-19 -4.75931e-19)
(0.018375 1.72325e-19 -6.83957e-19)
(0.0111326 -2.08444e-20 -1.11264e-18)
(0.00380883 1.10659e-19 1.24564e-20)
(0.233658 -2.57209e-17 -8.54011e-17)
(0.233358 1.51719e-17 -1.28722e-17)
(0.23279 3.68165e-17 -6.27819e-18)
(0.231983 7.94181e-18 4.83449e-18)
(0.230959 1.56093e-17 2.32829e-18)
(0.229736 1.60853e-17 2.33006e-18)
(0.228327 1.36555e-17 1.98802e-18)
(0.226745 4.45556e-18 4.27341e-18)
(0.224999 9.61538e-18 2.89816e-19)
(0.223096 2.38335e-18 7.03866e-18)
(0.221044 -3.79471e-18 1.01235e-19)
(0.218846 -3.54146e-18 3.11475e-18)
(0.216507 -4.39521e-18 -5.88399e-18)
(0.214029 6.69346e-19 -5.18265e-19)
(0.211415 7.76778e-19 -8.66722e-19)
(0.208664 1.19652e-19 -2.00954e-18)
(0.205776 5.52016e-18 -6.0324e-18)
(0.202751 1.34001e-17 -5.79268e-18)
(0.199583 1.08159e-17 -1.46854e-18)
(0.196266 1.3051e-17 -2.86129e-18)
(0.192792 1.26663e-17 -1.30065e-18)
(0.189144 1.0619e-17 -2.21226e-18)
(0.18531 1.32005e-17 -7.48494e-19)
(0.181287 1.42432e-17 -1.11545e-18)
(0.177065 1.32506e-17 8.41127e-19)
(0.172628 1.10932e-17 -3.7363e-19)
(0.167954 1.01947e-17 9.99567e-19)
(0.163028 9.62189e-18 1.14082e-19)
(0.157841 8.5728e-18 9.44558e-19)
(0.152382 7.0995e-18 1.64853e-18)
(0.146633 5.95046e-18 1.4321e-18)
(0.140578 5.26375e-18 6.37998e-19)
(0.134195 4.82399e-18 -6.15001e-20)
(0.12747 5.14361e-18 -4.54808e-19)
(0.120384 5.0323e-18 5.00366e-19)
(0.112926 3.93786e-18 5.11423e-19)
(0.105088 3.07937e-18 5.25681e-19)
(0.0968744 2.72594e-18 7.54823e-20)
(0.0883022 2.7622e-18 -8.20032e-20)
(0.0794105 2.73615e-18 -3.0053e-20)
(0.0702628 2.1633e-18 -1.93682e-20)
(0.0609441 1.34396e-18 8.24612e-20)
(0.0515459 7.20337e-19 -7.27199e-20)
(0.0421423 3.97176e-19 -2.73837e-19)
(0.0327728 3.90781e-19 -5.94358e-19)
(0.0234408 2.27274e-19 -9.12038e-19)
(0.0141253 -1.84931e-20 -1.57945e-18)
(0.00479444 1.20027e-19 3.172e-20)
(0.275886 -3.29595e-17 -8.32105e-17)
(0.275552 2.68724e-18 -1.33231e-17)
(0.274922 3.0784e-17 -7.03507e-18)
(0.274025 5.10058e-18 5.02215e-18)
(0.272886 1.2135e-17 2.33735e-18)
(0.271524 1.30209e-17 -5.11207e-19)
(0.269954 1.17538e-17 1.04586e-18)
(0.268189 2.63881e-18 6.28629e-18)
(0.266238 7.90091e-18 -1.0082e-19)
(0.264109 8.42816e-19 1.23831e-17)
(0.261809 -5.87132e-18 3.16217e-18)
(0.259341 -6.14861e-18 3.41271e-18)
(0.256711 -6.60593e-18 -5.08401e-18)
(0.253919 -8.7398e-19 -1.85116e-18)
(0.250967 -9.79518e-19 -1.61538e-18)
(0.247856 -1.63646e-18 -2.60328e-18)
(0.244583 3.29589e-18 -7.77126e-18)
(0.241147 1.21202e-17 -9.05148e-18)
(0.237542 1.03966e-17 -2.59716e-18)
(0.233763 1.18547e-17 -4.01544e-18)
(0.229798 1.20378e-17 -2.81518e-18)
(0.225628 1.0775e-17 -2.41384e-18)
(0.22124 1.24052e-17 -2.06262e-18)
(0.21663 1.34307e-17 -2.74527e-18)
(0.211784 1.29007e-17 3.80826e-19)
(0.206685 1.12443e-17 -1.55074e-19)
(0.201304 1.00797e-17 1.73256e-18)
(0.195623 8.94691e-18 1.15924e-18)
(0.189631 8.58036e-18 1.75988e-18)
(0.183314 7.04486e-18 2.49431e-18)
(0.176651 5.64543e-18 1.04672e-18)
(0.169617 5.22933e-18 7.00951e-19)
(0.162187 4.64187e-18 9.24887e-19)
(0.154339 5.13171e-18 1.04415e-19)
(0.146047 5.21199e-18 1.22705e-18)
(0.137288 4.02236e-18 9.07566e-19)
(0.128042 3.14173e-18 8.16977e-19)
(0.118298 2.62953e-18 4.7063e-19)
(0.108056 2.75417e-18 2.96734e-19)
(0.0973412 2.58756e-18 1.96158e-19)
(0.0862146 2.13055e-18 -2.84232e-19)
(0.074782 1.59818e-18 -6.395e-20)
(0.0631809 8.36877e-19 1.39505e-19)
(0.0515459 2.64404e-19 -8.0721e-20)
(0.0399699 2.22771e-19 -5.51164e-19)
(0.02849 1.65546e-19 -1.13126e-18)
(0.0170994 1.07143e-20 -2.05128e-18)
(0.00577226 1.36124e-19 9.81483e-20)
(0.311164 -3.65449e-17 -7.82551e-17)
(0.310805 -8.55045e-18 -1.38147e-17)
(0.310129 2.10037e-17 -5.19897e-18)
(0.309166 -4.76189e-19 5.02482e-18)
(0.307941 6.28784e-18 3.33339e-18)
(0.306476 7.92323e-18 2.26215e-18)
(0.304784 8.32842e-18 1.08398e-18)
(0.30288 -4.90653e-19 7.54055e-18)
(0.300773 5.20765e-18 -4.83679e-20)
(0.29847 -1.45983e-18 1.42287e-17)
(0.295977 -9.62437e-18 8.11604e-18)
(0.2933 -9.58905e-18 2.00819e-18)
(0.29044 -9.55877e-18 -1.75466e-19)
(0.2874 -3.4793e-18 -3.1311e-18)
(0.284179 -2.91724e-18 -3.11531e-18)
(0.280778 -4.00318e-18 -1.9013e-18)
(0.277195 2.20248e-19 -8.67365e-18)
(0.273426 1.02252e-17 -1.09797e-17)
(0.269467 9.26738e-18 -3.29414e-18)
(0.265309 1.0041e-17 -5.66191e-18)
(0.260946 1.09323e-17 -2.65285e-18)
(0.256367 9.5856e-18 -3.57534e-18)
(0.251559 1.06461e-17 -3.6978e-18)
(0.246506 1.27002e-17 -4.82663e-18)
(0.241194 1.24149e-17 3.59769e-19)
(0.235603 1.07233e-17 7.59682e-19)
(0.229701 9.71803e-18 2.97176e-18)
(0.223465 8.16056e-18 2.83463e-18)
(0.216888 7.87494e-18 2.0451e-18)
(0.209951 6.15921e-18 2.80312e-18)
(0.202632 4.81754e-18 7.16018e-19)
(0.194902 5.08837e-18 4.75743e-19)
(0.186731 4.29258e-18 5.05281e-19)
(0.178092 4.96585e-18 2.30638e-19)
(0.168952 5.25556e-18 1.69521e-18)
(0.159279 3.76689e-18 1.15162e-18)
(0.149035 2.95931e-18 1.12417e-18)
(0.138186 2.49184e-18 8.06426e-19)
(0.126702 2.57791e-18 7.69095e-19)
(0.114563 2.25006e-18 8.75843e-19)
(0.10179 1.94895e-18 1.54845e-19)
(0.0884722 1.83494e-18 -9.27049e-20)
(0.074782 8.71377e-19 -2.15204e-20)
(0.0609441 -7.35313e-20 -1.78154e-19)
(0.0471554 -1.08933e-19 -6.74465e-19)
(0.0335205 5.44038e-20 -1.32986e-18)
(0.0200573 6.7604e-20 -2.46875e-18)
(0.00674384 1.25423e-19 2.3564e-19)
(0.340937 -3.71181e-17 -7.50802e-17)
(0.340558 -1.64724e-17 -1.5829e-17)
(0.339842 1.13269e-17 -5.92853e-18)
(0.338823 -6.40424e-18 3.04458e-18)
(0.337526 7.7208e-19 2.50643e-18)
(0.335972 2.39535e-18 5.74453e-18)
(0.334177 3.92219e-18 7.38573e-19)
(0.332153 -3.88801e-18 4.15442e-18)
(0.32991 1.40988e-18 4.07659e-20)
(0.327456 -3.70911e-18 1.02331e-17)
(0.324795 -1.32191e-17 1.02879e-17)
(0.321932 -1.27938e-17 1.3732e-18)
(0.318869 -1.20285e-17 8.63639e-19)
(0.315607 -7.07514e-18 -4.95988e-18)
(0.312146 -4.85453e-18 -4.63181e-18)
(0.308485 -5.99497e-18 -7.89935e-19)
(0.304622 -3.1234e-18 -7.04953e-18)
(0.300553 7.88084e-18 -1.20261e-17)
(0.296274 7.51383e-18 -6.69775e-18)
(0.291776 8.18906e-18 -8.20627e-18)
(0.287055 9.38733e-18 -5.08148e-18)
(0.282108 8.03368e-18 -5.35279e-18)
(0.276922 8.77595e-18 -3.03536e-19)
(0.271475 1.14827e-17 -5.66919e-18)
(0.265753 1.22669e-17 -1.58711e-18)
(0.259741 1.04211e-17 8.76022e-19)
(0.253413 9.07899e-18 3.33771e-18)
(0.246746 6.46321e-18 3.58053e-18)
(0.239724 6.4825e-18 1.97192e-18)
(0.232328 5.14437e-18 2.1453e-18)
(0.224531 3.83534e-18 1.27326e-18)
(0.216307 4.61292e-18 3.15597e-20)
(0.207623 4.08278e-18 -3.1056e-19)
(0.198449 5.25573e-18 -2.19547e-19)
(0.18875 5.00677e-18 8.38823e-19)
(0.178486 3.27581e-18 7.78768e-19)
(0.167605 2.72602e-18 1.35585e-18)
(0.156055 2.25041e-18 1.11249e-18)
(0.143766 2.60646e-18 9.6509e-19)
(0.130657 1.89311e-18 7.2917e-19)
(0.11666 1.24961e-18 -8.36478e-20)
(0.10179 1.51978e-18 -5.29026e-19)
(0.0862146 9.16962e-19 -7.9141e-19)
(0.0702628 -6.66557e-20 -1.01042e-18)
(0.05429 -1.7056e-19 -1.19926e-18)
(0.0385128 -2.14644e-20 -1.70932e-18)
(0.0229904 1.33064e-21 -3.07728e-18)
(0.00770683 9.77471e-20 3.21513e-19)
(0.366375 -3.5465e-17 -7.31739e-17)
(0.365977 -2.09795e-17 -1.72967e-17)
(0.365227 3.42402e-18 -9.80606e-18)
(0.364159 -1.12523e-17 -3.35301e-19)
(0.362797 -3.64365e-18 -3.85228e-20)
(0.361165 -2.30709e-18 6.29748e-18)
(0.359276 -8.08191e-19 6.45381e-19)
(0.357145 -6.67091e-18 1.41934e-18)
(0.354779 -1.7171e-18 -7.33203e-19)
(0.352187 -5.94305e-18 7.35866e-18)
(0.349372 -1.57091e-17 5.69343e-18)
(0.346339 -1.59081e-17 1.15882e-18)
(0.343089 -1.47512e-17 -2.00851e-18)
(0.339623 -9.65869e-18 -7.38775e-18)
(0.33594 -5.90008e-18 -2.14291e-18)
(0.332039 -7.37793e-18 7.63767e-19)
(0.327917 -6.37547e-18 -5.3677e-18)
(0.323572 4.32192e-18 -1.12184e-17)
(0.318999 5.43556e-18 -9.24366e-18)
(0.314192 6.49868e-18 -7.85357e-18)
(0.309145 8.14671e-18 -6.53586e-18)
(0.303856 8.89293e-18 -3.54456e-18)
(0.298314 7.29524e-18 1.63291e-18)
(0.2925 7.98998e-18 -3.03211e-18)
(0.286405 1.16443e-17 -1.38797e-18)
(0.280016 1.05155e-17 -1.441e-19)
(0.273317 8.58727e-18 1.77865e-18)
(0.266294 5.18041e-18 2.58428e-18)
(0.258921 4.97785e-18 1.32631e-18)
(0.251173 4.52674e-18 2.26886e-18)
(0.243025 2.93899e-18 2.06835e-18)
(0.234448 3.31783e-18 2.53899e-19)
(0.225409 3.58657e-18 -5.19939e-19)
(0.215879 4.83187e-18 -4.5577e-19)
(0.205824 4.59096e-18 -4.80736e-19)
(0.195199 3.33265e-18 9.37628e-19)
(0.183945 2.69814e-18 1.37943e-18)
(0.171984 1.83863e-18 1.09504e-18)
(0.159222 1.87433e-18 8.28283e-19)
(0.14551 1.16629e-18 2.29101e-19)
(0.130657 9.77625e-19 -7.30265e-19)
(0.114563 1.50154e-18 -9.0126e-19)
(0.0973412 9.46842e-19 -1.25765e-18)
(0.0794105 2.68673e-19 -1.38076e-18)
(0.0613183 3.96728e-19 -1.50371e-18)
(0.0434348 2.91544e-19 -2.0977e-18)
(0.0258821 1.13047e-19 -3.76357e-18)
(0.00865616 9.40895e-20 4.07363e-19)
(0.388391 -3.25507e-17 -6.78592e-17)
(0.387977 -2.33066e-17 -1.93566e-17)
(0.387194 -2.73031e-18 -1.23815e-17)
(0.386078 -1.48648e-17 -6.1372e-19)
(0.384656 -7.02093e-18 7.04694e-19)
(0.382948 -5.87018e-18 7.79895e-18)
(0.38097 -4.56893e-18 5.6364e-18)
(0.378735 -9.3173e-18 6.943e-18)
(0.376251 -5.03595e-18 -3.48909e-20)
(0.373525 -8.75573e-18 6.40647e-18)
(0.370561 -1.76164e-17 3.00233e-18)
(0.367363 -1.76719e-17 4.64915e-19)
(0.363931 -1.69975e-17 -4.05803e-18)
(0.360266 -1.06489e-17 -7.07985e-18)
(0.356367 -6.27445e-18 -8.18552e-19)
(0.352235 -9.25246e-18 -1.92148e-18)
(0.347865 -9.04223e-18 -6.58305e-18)
(0.343257 1.31346e-18 -8.12699e-18)
(0.338408 3.85446e-18 -7.49439e-18)
(0.333311 5.03694e-18 -6.92789e-18)
(0.327963 7.14913e-18 -4.84635e-18)
(0.322365 8.4547e-18 -3.26725e-18)
(0.316507 6.08444e-18 -1.79485e-18)
(0.310372 6.38919e-18 -2.13008e-18)
(0.303959 9.75374e-18 5.24944e-19)
(0.297261 9.17209e-18 1.41332e-19)
(0.290265 7.84978e-18 1.54895e-18)
(0.282956 4.23751e-18 3.563e-18)
(0.275309 4.45351e-18 1.42525e-19)
(0.267295 4.25991e-18 5.13408e-20)
(0.258891 1.87175e-18 1.09623e-18)
(0.250072 2.07283e-18 1.49664e-18)
(0.240814 2.79816e-18 9.81156e-19)
(0.231084 3.92698e-18 8.69093e-19)
(0.22084 4.37065e-18 -3.57003e-20)
(0.210029 3.53133e-18 7.33065e-19)
(0.198579 2.14982e-18 3.12848e-19)
(0.186385 1.28529e-18 -1.77273e-20)
(0.173325 1.41164e-18 -1.16587e-19)
(0.159222 4.73771e-19 -1.82884e-19)
(0.143766 5.60204e-19 -5.24445e-19)
(0.126702 1.42395e-18 -8.06439e-19)
(0.108056 9.96289e-19 -1.20593e-18)
(0.0883022 5.73429e-19 -1.26727e-18)
(0.0681822 3.96099e-19 -1.53513e-18)
(0.04825 3.32379e-19 -2.31374e-18)
(0.0287127 6.93518e-20 -4.34667e-18)
(0.00958557 1.04834e-19 5.53473e-19)
(0.407706 -2.97886e-17 -6.20348e-17)
(0.407274 -2.43569e-17 -2.25538e-17)
(0.406459 -6.69585e-18 -1.3568e-17)
(0.405295 -1.71043e-17 1.63464e-18)
(0.403811 -9.79536e-18 2.21623e-18)
(0.402027 -8.30694e-18 1.00906e-17)
(0.399959 -7.04237e-18 1.05638e-17)
(0.397619 -1.23226e-17 1.2732e-17)
(0.395015 -8.76869e-18 5.54607e-18)
(0.392154 -1.09728e-17 4.65975e-18)
(0.389039 -1.92744e-17 6.60304e-18)
(0.385672 -1.96352e-17 1.07197e-18)
(0.382057 -1.86978e-17 -4.14453e-18)
(0.378193 -1.15937e-17 -7.76435e-18)
(0.37408 -7.84897e-18 -1.95195e-18)
(0.369719 -1.09962e-17 -5.57369e-18)
(0.365108 -9.53177e-18 -7.55031e-18)
(0.360246 -1.45343e-19 -6.19564e-18)
(0.355137 1.56581e-18 -6.91804e-18)
(0.349775 3.45674e-18 -7.36648e-18)
(0.344156 5.45855e-18 -5.03675e-18)
(0.338285 6.78167e-18 -4.73315e-18)
(0.332159 5.30575e-18 -5.56873e-18)
(0.325771 6.11254e-18 -3.79442e-18)
(0.319111 9.31321e-18 -2.78229e-19)
(0.312174 8.27271e-18 3.09168e-18)
(0.304951 7.70405e-18 2.53552e-18)
(0.297424 2.50877e-18 3.3525e-18)
(0.289569 1.37335e-18 7.95066e-19)
(0.281366 3.73963e-18 -1.65995e-18)
(0.272796 3.10019e-18 2.63249e-19)
(0.26384 2.31932e-18 2.02859e-18)
(0.254474 1.98531e-18 2.06362e-18)
(0.244659 2.52818e-18 1.73497e-18)
(0.234346 2.86218e-18 4.34166e-19)
(0.223473 2.31784e-18 -3.60479e-19)
(0.21195 1.31563e-18 -1.36248e-18)
(0.199637 1.13786e-18 -1.04277e-18)
(0.186385 1.58793e-18 -9.81613e-19)
(0.171984 1.01676e-18 -1.17427e-18)
(0.156055 8.8762e-19 -6.29636e-19)
(0.138186 1.23448e-18 -1.03032e-18)
(0.118298 9.82731e-19 -1.04177e-18)
(0.0968744 6.04592e-19 -1.2957e-18)
(0.0748323 4.85087e-19 -1.67926e-18)
(0.052925 3.7302e-19 -2.64092e-18)
(0.031463 4.13232e-20 -4.96706e-18)
(0.0104889 1.46368e-19 7.23688e-19)
(0.424866 -2.70177e-17 -5.63408e-17)
(0.424417 -2.44138e-17 -2.54161e-17)
(0.423568 -9.02388e-18 -1.20823e-17)
(0.422355 -1.87342e-17 3.49561e-18)
(0.420806 -1.20546e-17 5.5214e-19)
(0.418943 -1.00214e-17 1.16308e-17)
(0.416781 -9.0201e-18 1.07031e-17)
(0.414331 -1.41923e-17 1.09975e-17)
(0.411602 -1.29861e-17 1.0286e-17)
(0.408599 -1.32688e-17 4.52043e-18)
(0.405327 -1.99431e-17 1.1667e-17)
(0.401789 -2.16356e-17 1.78503e-18)
(0.397986 -2.08222e-17 -3.65205e-18)
(0.393922 -1.24893e-17 -9.62088e-18)
(0.389594 -8.7666e-18 -2.55856e-18)
(0.385011 -1.23379e-17 -5.916e-18)
(0.38017 -9.77764e-18 -7.3085e-18)
(0.375073 -1.65205e-18 -6.59819e-18)
(0.369728 -3.01054e-19 -6.34129e-18)
(0.364137 1.79809e-18 -6.41928e-18)
(0.358298 3.95216e-18 -7.26195e-18)
(0.35221 4.80061e-18 -4.2875e-18)
(0.345872 4.43771e-18 -7.52e-18)
(0.339284 6.52038e-18 -4.72288e-18)
(0.332433 1.03002e-17 -2.00401e-18)
(0.325313 7.91213e-18 2.92709e-18)
(0.317915 5.23283e-18 3.3672e-18)
(0.310226 1.48574e-18 1.79157e-18)
(0.302227 4.4234e-20 1.04728e-18)
(0.293908 2.49456e-18 -9.97292e-19)
(0.285255 3.26319e-18 2.47278e-19)
(0.276246 2.10283e-18 8.70028e-19)
(0.26685 1.17397e-18 8.942e-19)
(0.257022 1.07268e-18 3.86116e-19)
(0.246706 1.11878e-18 -6.10751e-19)
(0.23583 9.9108e-19 -8.93175e-19)
(0.224298 1.30686e-18 -1.35106e-18)
(0.21195 1.76491e-18 -6.71687e-19)
(0.198579 1.40223e-18 -7.12329e-19)
(0.183945 1.31042e-18 -1.00665e-18)
(0.167605 1.48476e-18 -8.57124e-19)
(0.149035 1.56318e-18 -1.1094e-18)
(0.128042 1.35261e-18 -8.70854e-19)
(0.105088 5.26213e-19 -1.30898e-18)
(0.0812334 2.80166e-19 -1.90274e-18)
(0.0574343 1.91167e-19 -3.12608e-18)
(0.0341179 -1.08038e-19 -5.82354e-18)
(0.0113612 9.10322e-20 6.72136e-19)
(0.440287 -2.48352e-17 -5.20207e-17)
(0.439819 -2.3577e-17 -2.8412e-17)
(0.438933 -1.00789e-17 -8.922e-18)
(0.437667 -2.05952e-17 5.72224e-18)
(0.43605 -1.38672e-17 -3.49018e-18)
(0.434102 -1.12928e-17 4.01733e-18)
(0.43184 -1.16318e-17 8.82797e-18)
(0.429274 -1.55216e-17 3.71218e-18)
(0.426412 -1.52268e-17 8.75318e-18)
(0.423262 -1.43472e-17 6.91705e-18)
(0.419827 -2.09404e-17 1.37174e-17)
(0.416112 -2.43425e-17 2.54507e-18)
(0.412119 -2.29139e-17 -3.76479e-18)
(0.407859 -1.3325e-17 -7.99541e-18)
(0.403325 -9.31126e-18 -6.06787e-18)
(0.398534 -1.34446e-17 -8.50215e-18)
(0.393493 -1.02497e-17 -8.26942e-18)
(0.388202 -2.41094e-18 -6.59503e-18)
(0.382664 -1.51234e-18 -4.54307e-18)
(0.376887 -6.25164e-19 -8.20017e-18)
(0.37087 2.57144e-18 -8.85913e-18)
(0.364609 3.51422e-18 -6.48522e-18)
(0.358103 2.96781e-18 -7.79473e-18)
(0.351351 6.42161e-18 -3.63957e-18)
(0.344348 1.05225e-17 -2.45348e-18)
(0.337087 8.58394e-18 -2.42231e-18)
(0.329562 4.38569e-18 7.46939e-19)
(0.321761 -3.68827e-19 -1.93583e-19)
(0.313681 -1.44307e-18 -7.72763e-19)
(0.305313 1.72685e-18 -1.42012e-18)
(0.296639 2.79453e-18 2.25899e-19)
(0.287632 1.35044e-18 -3.59354e-19)
(0.278256 2.41511e-19 -9.47746e-19)
(0.268461 -4.63016e-20 -2.31056e-18)
(0.258185 6.85621e-19 -1.99415e-18)
(0.247345 9.99059e-19 -5.63574e-19)
(0.23583 1.2271e-18 -1.40641e-19)
(0.223473 1.69136e-18 -5.37549e-19)
(0.210029 1.17802e-18 -1.09929e-18)
(0.195199 1.26723e-18 -7.22676e-19)
(0.178486 1.47137e-18 -8.86212e-19)
(0.159279 1.99156e-18 -1.35601e-18)
(0.137288 1.53577e-18 -1.76603e-18)
(0.112926 2.10465e-19 -2.31971e-18)
(0.0873652 -1.96807e-19 -2.86195e-18)
(0.0617614 -2.56417e-19 -4.08812e-18)
(0.0366673 -1.97527e-19 -6.82295e-18)
(0.012199 1.87314e-20 5.22444e-19)
(0.454281 -2.28494e-17 -5.02983e-17)
(0.453793 -2.20584e-17 -3.03711e-17)
(0.452868 -9.91077e-18 -7.95371e-18)
(0.451545 -2.28717e-17 4.86509e-18)
(0.449854 -1.75418e-17 -7.70243e-18)
(0.447815 -1.18252e-17 -4.74106e-18)
(0.445445 -1.30789e-17 6.73509e-18)
(0.442756 -1.6923e-17 -5.24669e-19)
(0.439755 -1.57334e-17 5.46419e-18)
(0.436451 -1.48098e-17 6.83174e-18)
(0.432849 -2.17027e-17 9.67291e-18)
(0.428959 -2.64949e-17 5.66197e-18)
(0.424784 -2.42765e-17 6.92078e-19)
(0.42034 -1.511e-17 -5.42736e-18)
(0.415635 -1.12182e-17 -1.24605e-17)
(0.410673 -1.35494e-17 -1.23079e-17)
(0.405465 -9.49555e-18 -9.57418e-18)
(0.400014 -2.43991e-18 -6.72416e-18)
(0.394319 -3.87775e-18 -7.03139e-18)
(0.388386 -3.25962e-18 -1.27018e-17)
(0.382216 1.39738e-18 -1.08251e-17)
(0.375808 2.57211e-18 -9.60378e-18)
(0.369164 3.75557e-18 -8.63385e-18)
(0.362284 6.54626e-18 -3.80257e-18)
(0.355165 7.75266e-18 -3.87633e-18)
(0.347803 7.16691e-18 -4.83287e-18)
(0.340193 4.34422e-18 -4.8717e-18)
(0.332337 -6.92178e-19 -2.31206e-18)
(0.324231 -1.61007e-18 2.56306e-19)
(0.315861 1.84144e-18 -9.00683e-19)
(0.307207 2.29024e-18 -1.8498e-18)
(0.298237 -1.60979e-19 -1.98347e-18)
(0.288912 -1.53337e-18 -1.97574e-18)
(0.279178 -6.72165e-19 -2.18602e-18)
(0.268967 2.11229e-18 -2.05846e-18)
(0.258185 2.19095e-18 -5.86933e-19)
(0.246706 8.24301e-19 4.95201e-19)
(0.234346 7.07124e-19 -7.24454e-19)
(0.22084 1.626e-18 -1.49908e-18)
(0.205824 2.38985e-18 -9.24353e-19)
(0.18875 1.83616e-18 -9.02128e-19)
(0.168952 1.91654e-18 -1.41312e-18)
(0.146047 1.70858e-18 -2.45418e-18)
(0.120384 8.11757e-19 -3.07022e-18)
(0.0932193 4.99085e-19 -3.70663e-18)
(0.0658985 1.02956e-19 -4.8374e-18)
(0.039106 -4.48109e-20 -7.58474e-18)
(0.0130005 1.12409e-21 6.08542e-19)
(0.467088 -2.09704e-17 -4.19053e-17)
(0.466577 -2.00683e-17 -2.92684e-17)
(0.465609 -9.79957e-18 -7.59635e-18)
(0.464224 -2.49054e-17 -2.41603e-18)
(0.462453 -2.03133e-17 -9.31302e-18)
(0.460317 -1.20544e-17 -3.95103e-18)
(0.457832 -1.41383e-17 5.87728e-18)
(0.455014 -1.8213e-17 3.65918e-18)
(0.451868 -1.60207e-17 2.59017e-18)
(0.448411 -1.5611e-17 3.83588e-18)
(0.444647 -2.12796e-17 4.36427e-18)
(0.440596 -2.60861e-17 7.35689e-18)
(0.436269 -2.62829e-17 7.0857e-18)
(0.431674 -1.95797e-17 -4.57707e-18)
(0.426825 -1.35941e-17 -1.50835e-17)
(0.42172 -1.2613e-17 -1.24686e-17)
(0.416368 -8.49416e-18 -1.05315e-17)
(0.410774 -3.62604e-18 -8.7448e-18)
(0.404941 -6.8082e-18 -1.15308e-17)
(0.398873 -4.71383e-18 -1.44581e-17)
(0.392576 1.41801e-18 -1.61508e-17)
(0.386049 2.13168e-18 -1.18043e-17)
(0.379298 3.69035e-18 -9.70953e-18)
(0.372321 5.94841e-18 -5.47699e-18)
(0.365121 6.69567e-18 -4.19882e-18)
(0.357696 5.34074e-18 -4.07902e-18)
(0.350051 4.15724e-18 -7.81978e-18)
(0.342186 2.2072e-18 -4.14157e-18)
(0.334092 -1.2672e-18 1.56329e-19)
(0.325752 -1.45042e-18 -2.77249e-19)
(0.317142 2.32863e-19 -2.80519e-18)
(0.30823 2.49137e-19 -2.88794e-18)
(0.298973 -5.16273e-19 -1.79138e-18)
(0.289314 -6.03407e-19 -7.28093e-20)
(0.279178 1.69164e-18 3.96522e-19)
(0.268461 3.04666e-18 -1.80861e-19)
(0.257022 8.74217e-19 4.52364e-19)
(0.244659 -1.78112e-19 2.73609e-19)
(0.231084 1.49447e-18 -1.1388e-20)
(0.215879 2.86792e-18 1.58181e-20)
(0.198449 2.31492e-18 -4.19261e-19)
(0.178092 1.82005e-18 -9.7816e-19)
(0.154339 1.61104e-18 -2.44204e-18)
(0.12747 8.97445e-19 -3.31278e-18)
(0.0987966 5.20103e-19 -4.14949e-18)
(0.0698446 1.99163e-19 -5.53664e-18)
(0.0414328 -4.69093e-20 -8.64082e-18)
(0.0137653 -6.17399e-20 5.18693e-19)
(0.478887 -2.0111e-17 -3.7548e-17)
(0.478352 -1.93911e-17 -2.71061e-17)
(0.477337 -1.09277e-17 -7.70739e-18)
(0.475886 -2.65511e-17 -7.00105e-18)
(0.474029 -2.08947e-17 -6.98868e-18)
(0.471789 -1.2043e-17 -2.59695e-18)
(0.469185 -1.43056e-17 5.52245e-18)
(0.466234 -1.9888e-17 6.01173e-18)
(0.462947 -1.8099e-17 -3.96886e-18)
(0.459346 -1.63924e-17 1.15174e-19)
(0.455448 -2.04165e-17 1.31952e-18)
(0.451264 -2.42581e-17 3.99609e-18)
(0.446809 -2.78308e-17 9.75748e-18)
(0.442086 -2.42691e-17 -4.48527e-18)
(0.437105 -1.53918e-17 -1.32743e-17)
(0.43187 -1.21558e-17 -1.16562e-17)
(0.42639 -8.67943e-18 -1.0596e-17)
(0.420671 -5.18941e-18 -8.91986e-18)
(0.414718 -8.51183e-18 -1.10072e-17)
(0.408539 -7.3368e-18 -1.12414e-17)
(0.402139 6.16394e-19 -1.7734e-17)
(0.395521 3.60591e-18 -1.38199e-17)
(0.38869 4.55864e-18 -1.05464e-17)
(0.381649 6.5986e-18 -6.4334e-18)
(0.374402 5.75188e-18 -3.51825e-18)
(0.366957 2.29879e-18 -4.10199e-18)
(0.359318 2.4529e-18 -5.48414e-18)
(0.351475 3.85487e-18 -5.55044e-18)
(0.343417 3.42039e-19 -3.26031e-18)
(0.335126 -1.90634e-18 -4.41926e-19)
(0.326575 -1.19105e-18 -1.17e-18)
(0.317733 -7.73795e-20 -2.23193e-18)
(0.308552 5.41762e-19 -1.27685e-18)
(0.298973 8.43451e-19 9.2186e-20)
(0.288912 1.17221e-18 2.21763e-18)
(0.278256 1.46902e-18 1.10287e-18)
(0.26685 9.58094e-19 6.02147e-19)
(0.254474 -1.25255e-19 1.11301e-18)
(0.240814 9.06205e-19 8.72447e-19)
(0.225409 1.9444e-18 7.28146e-19)
(0.207623 1.32755e-18 -3.65391e-19)
(0.186731 8.30216e-19 -8.72191e-19)
(0.162187 1.05464e-18 -2.11246e-18)
(0.134195 1.31344e-18 -3.19121e-18)
(0.104104 8.41843e-19 -4.20314e-18)
(0.0736032 2.0986e-19 -5.7778e-18)
(0.0436494 6.65648e-20 -9.0838e-18)
(0.014494 1.14255e-19 6.40192e-19)
(0.489819 -1.81985e-17 -4.44705e-17)
(0.489257 -1.74648e-17 -2.69112e-17)
(0.488192 -1.15992e-17 -1.2504e-17)
(0.486669 -2.69926e-17 1.50768e-18)
(0.484722 -2.14787e-17 -5.67541e-18)
(0.482375 -1.26233e-17 -4.33845e-18)
(0.479652 -1.46972e-17 5.25823e-18)
(0.476575 -2.27109e-17 1.84195e-18)
(0.473168 -1.96189e-17 -5.91651e-18)
(0.469449 -1.58137e-17 -1.39199e-19)
(0.465437 -2.00961e-17 -1.39732e-18)
(0.461139 -2.18473e-17 2.32286e-18)
(0.456565 -2.84708e-17 7.96639e-18)
(0.451722 -2.84372e-17 -4.97322e-18)
(0.446622 -1.71828e-17 -1.10858e-17)
(0.441271 -1.21359e-17 -1.13396e-17)
(0.435678 -8.29528e-18 -8.23426e-18)
(0.429853 -5.88978e-18 -7.00694e-18)
(0.423802 -9.13656e-18 -8.33318e-18)
(0.417535 -9.69504e-18 -1.02071e-17)
(0.411056 -2.08588e-18 -1.53906e-17)
(0.404373 3.6147e-18 -1.53307e-17)
(0.39749 5.2036e-18 -1.25234e-17)
(0.390418 7.21352e-18 -8.87047e-18)
(0.383164 5.40556e-18 -5.22293e-18)
(0.375734 1.7451e-18 -5.16861e-18)
(0.368123 1.04738e-18 -3.02453e-18)
(0.360322 2.06077e-18 -3.39441e-18)
(0.352315 1.76217e-18 -3.34928e-18)
(0.344085 -8.20257e-19 -2.0317e-19)
(0.335604 -2.57729e-18 5.68374e-20)
(0.326836 -8.53753e-19 -1.73793e-18)
(0.317733 8.606e-19 -2.22483e-18)
(0.30823 2.05768e-18 -1.33604e-18)
(0.298237 1.62145e-18 -5.63263e-19)
(0.287632 2.29214e-20 -1.25882e-19)
(0.276246 -2.80042e-19 -5.46378e-19)
(0.26384 -9.80152e-19 6.4199e-19)
(0.250072 -2.04572e-20 1.2262e-18)
(0.234448 7.92835e-19 6.75503e-19)
(0.216307 8.48423e-19 5.54043e-20)
(0.194901 1.49331e-18 -7.40609e-19)