/*--------------------------------*- C++ -*----------------------------------*\
| =========                 |                                                 |
| \\      /  F ield         | OpenFOAM: The Open Source CFD Toolbox           |
|  \\    /   O peration     | Version:  2112                                  |
|   \\  /    A nd           | Website:  www.openfoam.com                      |
|    \\/     M anipulation  |                                                 |
\*---------------------------------------------------------------------------*/
FoamFile
{
    version     2.0;
    format      ascii;
    arch        "LSB;label=32;scalar=64";
    class       volVectorField;
    location    "100";
    object      U_KOSST;
}
// * * * * * * * * * * * * * * * * * * * * * * * * * * * * * * * * * * * * * //

dimensions      [0 1 -1 0 0 0 0];

internalField   nonuniform List<vector> 
2304
(
(0.0256243 -7.08848e-17 -2.07247e-16)
(0.025589 -6.38788e-17 2.87429e-18)
(0.0255225 -3.28235e-19 8.96291e-19)
(0.0254279 -6.21036e-18 1.35735e-18)
(0.0253081 -9.24576e-19 4.74545e-19)
(0.0251652 -1.03087e-18 2.1883e-19)
(0.0250009 -1.48437e-18 3.19787e-19)
(0.0248167 -2.53315e-18 6.42453e-19)
(0.024614 -1.72933e-19 -1.24794e-19)
(0.0243936 -1.40597e-18 -1.10206e-19)
(0.0241564 -8.86557e-19 1.96559e-20)
(0.0239032 1.03281e-18 3.58034e-19)
(0.0236344 6.83149e-19 4.47093e-19)
(0.0233506 5.88298e-19 2.34429e-19)
(0.0230519 -6.55485e-20 2.31335e-19)
(0.0227387 -9.35898e-19 3.49938e-19)
(0.0224108 1.7259e-19 -6.42659e-20)
(0.0220683 1.11271e-18 1.8968e-19)
(0.0217108 -7.96828e-19 5.83791e-20)
(0.0213376 -6.8101e-19 -2.33027e-20)
(0.0209475 -7.48038e-19 9.25401e-20)
(0.020539 -1.10311e-18 -5.90577e-20)
(0.0201111 -1.63632e-19 2.73525e-20)
(0.0196632 1.35366e-19 8.0013e-20)
(0.0191943 -1.18005e-19 1.79588e-19)
(0.0187025 -4.73285e-19 8.81529e-20)
(0.0181861 -2.99722e-19 -4.26706e-21)
(0.0176437 2.02796e-19 4.83938e-20)
(0.017074 1.13576e-19 1.28803e-19)
(0.0164758 -2.57335e-19 1.41497e-20)
(0.0158476 -2.67091e-19 -3.24397e-20)
(0.0151875 -7.84606e-20 -9.68157e-21)
(0.014494 -7.76314e-20 4.39618e-20)
(0.0137653 -8.05526e-20 1.56281e-20)
(0.0130005 -2.08586e-19 1.88461e-19)
(0.012199 -4.55449e-19 3.24316e-20)
(0.0113612 -4.20456e-19 4.30998e-21)
(0.0104889 -4.51922e-19 9.80203e-20)
(0.00958557 -5.21839e-19 2.09894e-20)
(0.00865616 -4.633e-19 -2.55832e-21)
(0.00770683 -4.1113e-19 -3.26826e-20)
(0.00674384 -3.44748e-19 -5.85445e-20)
(0.00577226 -3.09688e-19 -4.03342e-21)
(0.00479444 -2.98479e-19 1.05095e-20)
(0.00380883 -2.33265e-19 -3.77907e-21)
(0.00280823 -1.37516e-19 -1.70412e-20)
(0.00177533 -6.45385e-20 -1.70377e-20)
(0.00066756 -4.49196e-21 -1.02472e-20)
(0.0775212 -2.30493e-16 -7.49933e-16)
(0.0774137 -3.1196e-16 -2.80231e-17)
(0.0772112 -1.4301e-16 -4.06495e-18)
(0.0769236 -1.20274e-16 -5.46831e-18)
(0.0765589 -9.14416e-17 -2.44203e-18)
(0.0761238 -7.67334e-17 -1.4056e-19)
(0.0756238 -6.26084e-17 1.78879e-18)
(0.0750634 -5.47665e-17 -2.30494e-18)
(0.0744463 -4.19283e-17 -1.65691e-18)
(0.0737755 -3.71195e-17 -5.49041e-20)
(0.0730537 -2.80533e-17 -4.67093e-19)
(0.072283 -1.92955e-17 -1.28163e-18)
(0.071465 -1.83294e-17 -2.67793e-19)
(0.070601 -1.55784e-17 -7.08485e-19)
(0.0696919 -1.41725e-17 4.42972e-19)
(0.0687385 -1.46373e-17 -6.29669e-20)
(0.0677407 -1.11154e-17 -6.50782e-19)
(0.0666982 -7.5146e-18 2.2985e-19)
(0.06561 -1.18036e-17 9.34618e-19)
(0.0644741 -1.15573e-17 -6.07591e-19)
(0.0632869 -1.17467e-17 7.92218e-19)
(0.0620437 -1.24774e-17 -2.5613e-19)
(0.0607414 -1.04727e-17 -2.07867e-19)
(0.0593782 -9.90199e-18 -2.85784e-20)
(0.057951 -1.04538e-17 2.14836e-19)
(0.0564546 -1.08961e-17 -6.98765e-20)
(0.0548832 -1.00941e-17 -4.8717e-19)
(0.0532324 -8.52439e-18 -5.74814e-19)
(0.0514989 -8.20286e-18 1.07415e-20)
(0.0496789 -8.45357e-18 -1.47002e-19)
(0.0477674 -7.72433e-18 -5.64023e-19)
(0.0457593 -6.38233e-18 -4.21799e-19)
(0.0436494 -5.91048e-18 1.80364e-19)
(0.0414328 -5.77633e-18 -1.75032e-19)
(0.039106 -5.52339e-18 2.15505e-20)
(0.0366673 -5.40555e-18 -1.92219e-19)
(0.0341179 -5.03935e-18 -3.14007e-19)
(0.031463 -4.76448e-18 -3.49333e-19)
(0.0287126 -4.36699e-18 -3.81878e-19)
(0.0258821 -3.79319e-18 -4.10799e-19)
(0.0229904 -3.16925e-18 -5.43489e-19)
(0.0200573 -2.61592e-18 -3.29977e-19)
(0.0170994 -2.13083e-18 -4.08224e-19)
(0.0141253 -1.65357e-18 -3.50584e-19)
(0.0111326 -1.21726e-18 -3.42412e-19)
(0.00810472 -7.6068e-19 -3.75206e-19)
(0.00500673 -3.6793e-19 -3.96627e-19)
(0.00177533 -1.07317e-21 -9.46305e-20)
(0.130966 -2.36057e-16 -5.72751e-16)
(0.130784 -2.98609e-16 -4.13138e-17)
(0.130442 -1.26112e-16 -1.42424e-17)
(0.129957 -1.14122e-16 -6.74529e-18)
(0.129341 -8.21644e-17 -4.15273e-18)
(0.128606 -6.89584e-17 -8.95787e-19)
(0.127761 -5.82306e-17 -1.16833e-19)
(0.126814 -5.28095e-17 -3.05639e-18)
(0.125771 -3.82267e-17 -4.88346e-18)
(0.124637 -3.6253e-17 -9.53228e-19)
(0.123417 -2.88054e-17 -3.54758e-18)
(0.122114 -1.91211e-17 -8.81163e-19)
(0.120731 -1.83255e-17 -1.40374e-18)
(0.119269 -1.55915e-17 -1.35207e-19)
(0.117731 -1.48481e-17 -2.90208e-19)
(0.116117 -1.58634e-17 6.73835e-19)
(0.114429 -1.09837e-17 -8.4658e-19)
(0.112664 -6.1412e-18 3.0124e-19)
(0.110821 -1.16522e-17 1.21681e-18)
(0.108898 -1.10395e-17 -7.85316e-19)
(0.106887 -1.13305e-17 1.60638e-18)
(0.104781 -1.24204e-17 -6.82894e-19)
(0.102575 -9.29494e-18 -5.70573e-19)
(0.100265 -8.29553e-18 -3.20651e-20)
(0.0978467 -9.08407e-18 1.00017e-18)
(0.095311 -9.90252e-18 1.8147e-19)
(0.0926478 -8.80043e-18 -5.76847e-19)
(0.0898495 -6.71567e-18 -1.12408e-18)
(0.0869108 -6.46584e-18 -3.42221e-19)
(0.0838253 -7.2025e-18 -1.44608e-19)
(0.0805849 -6.62416e-18 -7.39279e-19)
(0.0771806 -5.07261e-18 -3.25387e-19)
(0.0736032 -4.85538e-18 -1.90218e-19)
(0.0698446 -4.93702e-18 -6.51718e-19)
(0.0658985 -4.78077e-18 -5.09135e-19)
(0.0617614 -4.88861e-18 -4.22863e-19)
(0.0574343 -4.66871e-18 -6.44654e-19)
(0.052925 -4.44727e-18 -8.91512e-19)
(0.04825 -4.05114e-18 -8.71033e-19)
(0.0434348 -3.64313e-18 -8.63228e-19)
(0.0385128 -2.93523e-18 -8.98663e-19)
(0.0335205 -2.39414e-18 -6.98425e-19)
(0.02849 -2.06458e-18 -7.17864e-19)
(0.0234408 -1.61487e-18 -7.5437e-19)
(0.018375 -1.20474e-18 -7.69451e-19)
(0.0132752 -7.41237e-19 -7.44114e-19)
(0.00810472 -3.32179e-19 -7.77461e-19)
(0.00280823 1.2981e-20 -1.68912e-19)
(0.184303 -2.35577e-16 -4.97457e-16)
(0.184053 -2.91856e-16 -5.97695e-17)
(0.183582 -1.23204e-16 -2.67955e-17)
(0.182913 -1.15622e-16 -1.01029e-17)
(0.182064 -8.19399e-17 -7.0303e-18)
(0.181051 -6.88426e-17 -9.72228e-19)
(0.179885 -5.95795e-17 -1.56841e-18)
(0.178578 -5.51142e-17 -4.57604e-18)
(0.177137 -3.89608e-17 -6.884e-18)
(0.175569 -3.85772e-17 -1.14815e-18)
(0.17388 -3.22644e-17 -5.88928e-18)
(0.172075 -2.20451e-17 -1.15208e-18)
(0.170156 -2.10406e-17 -3.30061e-18)
(0.168128 -1.79366e-17 -1.28292e-19)
(0.165991 -1.73043e-17 3.64946e-22)
(0.163748 -1.82124e-17 4.81165e-19)
(0.161397 -1.27164e-17 -5.73366e-19)
(0.158938 -6.72796e-18 -1.03938e-18)
(0.156369 -1.23649e-17 6.12636e-19)
(0.153684 -1.13362e-17 -1.13319e-18)
(0.150876 -1.17347e-17 1.75459e-18)
(0.147932 -1.31335e-17 -1.18695e-18)
(0.144844 -9.20591e-18 -1.064e-18)
(0.141609 -7.72883e-18 -4.02585e-19)
(0.138219 -8.82143e-18 1.45548e-18)
(0.134662 -9.83926e-18 -3.0025e-19)
(0.130923 -8.49295e-18 -8.2573e-19)
(0.12699 -6.22488e-18 -1.91352e-18)
(0.122857 -5.7404e-18 -7.4617e-19)
(0.118514 -6.72966e-18 -1.19271e-19)
(0.113949 -6.15484e-18 -3.89826e-19)
(0.109151 -4.82752e-18 -2.71123e-19)
(0.104104 -4.8949e-18 -1.31595e-18)
(0.0987966 -4.76552e-18 -1.18915e-18)
(0.0932193 -4.48938e-18 -1.09869e-18)
(0.0873652 -4.69833e-18 -8.16845e-19)
(0.0812334 -4.85252e-18 -8.4233e-19)
(0.0748323 -4.55066e-18 -1.20291e-18)
(0.0681822 -4.01472e-18 -1.35242e-18)
(0.0613183 -3.64731e-18 -1.32212e-18)
(0.05429 -2.93345e-18 -1.24222e-18)
(0.0471554 -2.43251e-18 -1.19627e-18)
(0.0399699 -2.20469e-18 -1.24332e-18)
(0.0327728 -1.79135e-18 -1.27026e-18)
(0.0255782 -1.23337e-18 -1.32072e-18)
(0.018375 -7.28706e-19 -1.21955e-18)
(0.0111326 -3.68227e-19 -1.23584e-18)
(0.00380883 1.89724e-20 -2.61232e-19)
(0.233658 -2.20767e-16 -4.48482e-16)
(0.233358 -2.74708e-16 -7.63397e-17)
(0.23279 -1.21271e-16 -3.77954e-17)
(0.231983 -1.15491e-16 -1.37832e-17)
(0.230959 -8.21391e-17 -1.04274e-17)
(0.229736 -6.91775e-17 -3.70418e-18)
(0.228327 -6.11625e-17 -3.2731e-18)
(0.226745 -5.69303e-17 -7.04872e-18)
(0.224999 -4.00412e-17 -7.96145e-18)
(0.223096 -4.06831e-17 -9.23454e-20)
(0.221044 -3.53654e-17 -6.90874e-18)
(0.218846 -2.53812e-17 -1.33987e-18)
(0.216507 -2.41931e-17 -3.94332e-18)
(0.214029 -2.03835e-17 -1.1416e-18)
(0.211415 -1.98866e-17 -5.17712e-20)
(0.208664 -2.02434e-17 -6.05564e-19)
(0.205776 -1.46995e-17 -2.17858e-18)
(0.202751 -8.29949e-18 -3.32863e-18)
(0.199583 -1.29971e-17 -8.71393e-19)
(0.196266 -1.16684e-17 -2.0407e-18)
(0.192792 -1.2107e-17 2.60477e-19)
(0.189144 -1.3402e-17 -2.02341e-18)
(0.18531 -9.23353e-18 -1.97103e-18)
(0.181287 -7.45966e-18 -1.27653e-18)
(0.177065 -8.83894e-18 -1.354e-19)
(0.172628 -9.84652e-18 -2.54206e-18)
(0.167954 -8.20335e-18 -1.89991e-18)
(0.163028 -5.9809e-18 -2.62531e-18)
(0.157841 -5.09706e-18 -1.1937e-18)
(0.152382 -6.08076e-18 9.35012e-20)
(0.146633 -6.05693e-18 4.05118e-19)
(0.140577 -5.32392e-18 -6.03719e-19)
(0.134195 -4.93032e-18 -1.37574e-18)
(0.12747 -4.56462e-18 -8.73271e-19)
(0.120384 -4.41727e-18 -1.13921e-18)
(0.112926 -4.47666e-18 -1.2879e-18)
(0.105088 -4.84827e-18 -1.05945e-18)
(0.0968744 -4.8507e-18 -1.31487e-18)
(0.0883022 -4.30916e-18 -1.72962e-18)
(0.0794105 -3.82984e-18 -1.80152e-18)
(0.0702627 -3.13134e-18 -1.74917e-18)
(0.0609441 -2.62562e-18 -1.86414e-18)
(0.0515459 -2.28514e-18 -1.73911e-18)
(0.0421423 -1.8248e-18 -1.76074e-18)
(0.0327728 -1.24833e-18 -1.71402e-18)
(0.0234408 -6.88855e-19 -1.69006e-18)
(0.0141253 -3.73796e-19 -1.75228e-18)
(0.00479444 3.14983e-20 -3.81495e-19)
(0.275886 -1.96895e-16 -4.05422e-16)
(0.275552 -2.49354e-16 -8.9417e-17)
(0.274921 -1.17639e-16 -4.51635e-17)
(0.274025 -1.12568e-16 -1.78478e-17)
(0.272886 -8.16647e-17 -1.37506e-17)
(0.271524 -6.88499e-17 -8.98096e-18)
(0.269954 -6.12886e-17 -6.47293e-18)
(0.268189 -5.73891e-17 -8.02735e-18)
(0.266238 -4.02443e-17 -1.23622e-17)
(0.264109 -4.16557e-17 3.02098e-19)
(0.261809 -3.75156e-17 -4.31454e-18)
(0.259341 -2.77574e-17 -2.67144e-18)
(0.256711 -2.6635e-17 -2.77937e-18)
(0.253919 -2.2501e-17 -2.84778e-18)
(0.250967 -2.15867e-17 -1.24988e-18)
(0.247856 -2.16833e-17 -1.3506e-18)
(0.244583 -1.66438e-17 -4.19265e-18)
(0.241147 -9.70393e-18 -6.12106e-18)
(0.237542 -1.31919e-17 -2.23586e-18)
(0.233763 -1.18083e-17 -3.64059e-18)
(0.229798 -1.19732e-17 -1.13819e-18)
(0.225628 -1.31377e-17 -1.9368e-18)
(0.22124 -9.32875e-18 -3.58896e-18)
(0.21663 -7.49634e-18 -2.68676e-18)
(0.211784 -8.86988e-18 -1.75059e-18)
(0.206685 -9.12489e-18 -4.19997e-18)
(0.201304 -7.26321e-18 -2.49175e-18)
(0.195623 -5.56508e-18 -2.73802e-18)
(0.189631 -4.30024e-18 -6.53508e-19)
(0.183314 -5.25681e-18 4.01508e-19)
(0.176651 -5.81651e-18 -3.2545e-19)
(0.169617 -5.13601e-18 -1.55638e-18)
(0.162187 -4.53245e-18 -8.26128e-19)
(0.154339 -4.45993e-18 -6.25315e-19)
(0.146047 -4.57109e-18 -1.28882e-18)
(0.137288 -4.34394e-18 -1.72809e-18)
(0.128042 -4.70701e-18 -1.75186e-18)
(0.118298 -4.96519e-18 -1.85163e-18)
(0.108056 -4.43543e-18 -2.0009e-18)
(0.0973412 -3.92603e-18 -2.25266e-18)
(0.0862146 -3.28211e-18 -2.55489e-18)
(0.074782 -2.56742e-18 -2.3641e-18)
(0.0631809 -2.24498e-18 -1.90615e-18)
(0.0515459 -1.9447e-18 -2.0247e-18)
(0.0399699 -1.32665e-18 -1.95854e-18)
(0.02849 -7.58553e-19 -2.05783e-18)
(0.0170994 -3.45164e-19 -2.21062e-18)
(0.00577225 2.48585e-20 -4.34395e-19)
(0.311164 -1.71505e-16 -3.66428e-16)
(0.310805 -2.22614e-16 -9.87061e-17)
(0.310129 -1.13784e-16 -5.03845e-17)
(0.309166 -1.0917e-16 -2.09777e-17)
(0.307941 -8.08883e-17 -1.65906e-17)
(0.306475 -6.85855e-17 -1.12671e-17)
(0.304784 -6.10074e-17 -8.7054e-18)
(0.30288 -5.78153e-17 -7.6368e-18)
(0.300773 -4.06868e-17 -1.71284e-17)
(0.29847 -4.08659e-17 1.30441e-18)
(0.295977 -3.89939e-17 5.45778e-19)
(0.2933 -2.98076e-17 -3.48544e-18)
(0.29044 -2.83703e-17 -2.00548e-18)
(0.287399 -2.43658e-17 -7.8681e-18)
(0.284179 -2.25397e-17 -3.59511e-18)
(0.280778 -2.26499e-17 -2.30349e-18)
(0.277195 -1.84172e-17 -4.44574e-18)
(0.273426 -1.1027e-17 -8.19868e-18)
(0.269467 -1.33484e-17 -2.91816e-18)
(0.265309 -1.19547e-17 -6.20061e-18)
(0.260946 -1.13835e-17 -1.7399e-18)
(0.256367 -1.30953e-17 -2.26413e-18)
(0.251559 -9.58054e-18 -4.86249e-18)
(0.246506 -6.99013e-18 -3.64531e-18)
(0.241194 -8.77655e-18 -1.564e-18)
(0.235603 -8.45461e-18 -4.10764e-18)
(0.229701 -6.25642e-18 -2.37782e-18)
(0.223465 -4.93722e-18 -1.82763e-18)
(0.216888 -3.66406e-18 -2.49419e-19)
(0.209951 -5.08476e-18 1.79422e-19)
(0.202632 -6.00137e-18 -1.34275e-18)
(0.194901 -4.65108e-18 -2.43016e-18)
(0.186731 -3.62063e-18 -1.90875e-18)
(0.178092 -4.27273e-18 -1.85558e-18)
(0.168952 -4.56109e-18 -2.31396e-18)
(0.159279 -4.24184e-18 -1.85004e-18)
(0.149035 -4.436e-18 -2.32423e-18)
(0.138186 -4.58981e-18 -2.2572e-18)
(0.126702 -4.37312e-18 -2.18749e-18)
(0.114563 -4.19768e-18 -2.57273e-18)
(0.10179 -3.1902e-18 -2.95289e-18)
(0.0884722 -2.11186e-18 -2.73148e-18)
(0.074782 -2.20114e-18 -2.51255e-18)
(0.0609441 -2.17417e-18 -2.49262e-18)
(0.0471554 -1.4491e-18 -2.43785e-18)
(0.0335205 -8.31928e-19 -2.43091e-18)
(0.0200573 -3.81435e-19 -2.58361e-18)
(0.00674384 4.85645e-20 -4.27182e-19)
(0.340937 -1.46738e-16 -3.32687e-16)
(0.340558 -1.96306e-16 -1.05137e-16)
(0.339842 -1.09282e-16 -5.80162e-17)
(0.338823 -1.0543e-16 -2.53889e-17)
(0.337526 -7.98793e-17 -1.86027e-17)
(0.335972 -6.8007e-17 -1.25782e-17)
(0.334177 -6.04774e-17 -1.26783e-17)
(0.332153 -5.83099e-17 -1.17566e-17)
(0.32991 -4.09935e-17 -1.57301e-17)
(0.327456 -3.93394e-17 6.10671e-19)
(0.324795 -4.00767e-17 1.48746e-19)
(0.321932 -3.17056e-17 -3.48599e-18)
(0.318869 -3.04113e-17 -4.69331e-18)
(0.315607 -2.60817e-17 -1.08003e-17)
(0.312146 -2.2277e-17 -8.05471e-18)
(0.308485 -2.24938e-17 -3.67665e-18)
(0.304622 -1.99191e-17 -4.93062e-18)
(0.300553 -1.23986e-17 -1.07357e-17)
(0.296274 -1.38676e-17 -5.42069e-18)
(0.291776 -1.20649e-17 -8.63491e-18)
(0.287055 -1.0458e-17 -4.8952e-18)
(0.282108 -1.31218e-17 -2.36845e-18)
(0.276921 -9.9594e-18 -2.53457e-18)
(0.271475 -6.56641e-18 -4.02361e-18)
(0.265753 -8.38016e-18 -2.58667e-18)
(0.259741 -8.01973e-18 -4.46595e-18)
(0.253413 -5.45312e-18 -3.09487e-18)
(0.246746 -4.50892e-18 -1.96649e-18)
(0.239724 -3.71665e-18 -1.9623e-18)
(0.232328 -5.23672e-18 -1.55428e-18)
(0.224531 -5.89734e-18 -2.57514e-18)
(0.216307 -4.38749e-18 -3.20888e-18)
(0.207623 -3.33765e-18 -3.52072e-18)
(0.198449 -3.8941e-18 -3.42423e-18)
(0.18875 -3.83514e-18 -2.5867e-18)
(0.178486 -3.67446e-18 -1.34191e-18)
(0.167605 -4.30005e-18 -2.03623e-18)
(0.156055 -4.14279e-18 -2.40093e-18)
(0.143766 -4.20052e-18 -2.51296e-18)
(0.130657 -4.16648e-18 -2.70983e-18)
(0.11666 -3.17915e-18 -3.44744e-18)
(0.10179 -2.19938e-18 -3.64434e-18)
(0.0862146 -2.10656e-18 -3.78201e-18)
(0.0702627 -1.98875e-18 -3.50996e-18)
(0.05429 -1.35948e-18 -3.20298e-18)
(0.0385128 -8.62951e-19 -3.01359e-18)
(0.0229904 -4.70007e-19 -3.14319e-18)
(0.00770682 4.2351e-20 -4.91795e-19)
(0.366374 -1.2395e-16 -3.04959e-16)
(0.365977 -1.71752e-16 -1.13052e-16)
(0.365227 -1.04067e-16 -6.64507e-17)
(0.364158 -1.00626e-16 -3.19446e-17)
(0.362797 -7.81232e-17 -1.96205e-17)
(0.361164 -6.76666e-17 -1.39942e-17)
(0.359276 -6.04653e-17 -1.46722e-17)
(0.357145 -5.72671e-17 -1.23101e-17)
(0.354779 -4.07037e-17 -1.34312e-17)
(0.352187 -3.88978e-17 -7.11896e-18)
(0.349372 -4.02556e-17 -3.33642e-18)
(0.346339 -3.2972e-17 -4.98974e-18)
(0.343089 -3.1679e-17 -1.00957e-17)
(0.339623 -2.73361e-17 -8.78706e-18)
(0.33594 -2.21911e-17 -8.53552e-18)
(0.332039 -2.17696e-17 -5.25201e-18)
(0.327917 -2.12961e-17 -7.03513e-18)
(0.323572 -1.39359e-17 -1.24001e-17)
(0.318999 -1.41385e-17 -9.23199e-18)
(0.314192 -1.25956e-17 -1.03777e-17)
(0.309145 -9.35113e-18 -7.19708e-18)
(0.303856 -1.11403e-17 -2.1929e-18)
(0.298314 -1.02739e-17 -2.76119e-19)
(0.2925 -7.7057e-18 -2.75234e-18)
(0.286405 -8.49832e-18 -3.15618e-18)
(0.280016 -7.61712e-18 -4.81178e-18)
(0.273317 -4.88136e-18 -4.59444e-18)
(0.266294 -4.66347e-18 -2.66264e-18)
(0.258921 -3.99998e-18 -3.624e-18)
(0.251173 -4.9742e-18 -2.77929e-18)
(0.243025 -5.58748e-18 -2.41487e-18)
(0.234448 -4.16607e-18 -4.00094e-18)
(0.225409 -3.0518e-18 -4.46194e-18)
(0.215879 -2.99422e-18 -4.00693e-18)
(0.205824 -2.67462e-18 -3.01551e-18)
(0.195199 -3.3116e-18 -2.21475e-18)
(0.183944 -4.57376e-18 -2.00181e-18)
(0.171984 -4.22519e-18 -2.60842e-18)
(0.159222 -3.97953e-18 -2.93206e-18)
(0.14551 -4.39615e-18 -2.59567e-18)
(0.130657 -3.57886e-18 -3.86087e-18)
(0.114563 -2.0722e-18 -4.10311e-18)
(0.0973412 -1.7598e-18 -4.23028e-18)
(0.0794104 -1.4109e-18 -3.93252e-18)
(0.0613183 -8.4769e-19 -3.91667e-18)
(0.0434348 -6.20023e-19 -3.66312e-18)
(0.0258821 -4.2024e-19 -3.7975e-18)
(0.00865616 3.25854e-20 -5.58834e-19)
(0.388391 -1.03764e-16 -2.80249e-16)
(0.387977 -1.48967e-16 -1.19383e-16)
(0.387194 -9.78177e-17 -7.70343e-17)
(0.386078 -9.51306e-17 -3.68816e-17)
(0.384656 -7.58005e-17 -1.88698e-17)
(0.382948 -6.66698e-17 -1.45558e-17)
(0.38097 -5.92596e-17 -1.40001e-17)
(0.378735 -5.66281e-17 -6.86403e-18)
(0.376251 -4.27296e-17 -1.37692e-17)
(0.373525 -3.86665e-17 -1.33878e-17)
(0.370561 -3.88492e-17 -5.34194e-18)
(0.367363 -3.42409e-17 -6.28579e-18)
(0.363931 -3.17552e-17 -1.46025e-17)
(0.360266 -2.68282e-17 -7.51013e-18)
(0.356367 -2.27464e-17 -7.32764e-18)
(0.352235 -2.19881e-17 -5.44623e-18)
(0.347865 -2.20776e-17 -9.12211e-18)
(0.343257 -1.52846e-17 -1.01795e-17)
(0.338408 -1.45262e-17 -1.0673e-17)
(0.333311 -1.2252e-17 -1.15281e-17)
(0.327963 -8.11939e-18 -5.71112e-18)
(0.322365 -9.9074e-18 -7.53903e-19)
(0.316507 -1.01601e-17 -2.34312e-18)
(0.310372 -8.46728e-18 -3.22036e-18)
(0.303959 -9.13065e-18 -4.07675e-18)
(0.297261 -8.05229e-18 -3.74631e-18)
(0.290265 -4.65785e-18 -4.1676e-18)
(0.282956 -4.47495e-18 -3.84586e-18)
(0.275309 -4.23649e-18 -3.41335e-18)
(0.267295 -4.18687e-18 -3.17453e-18)
(0.258891 -5.60366e-18 -2.39787e-18)
(0.250072 -4.91283e-18 -3.74339e-18)
(0.240814 -2.98635e-18 -3.86469e-18)
(0.231084 -2.63696e-18 -4.00965e-18)
(0.22084 -2.48655e-18 -3.55097e-18)
(0.210029 -2.66669e-18 -3.78521e-18)
(0.198579 -4.05576e-18 -3.46406e-18)
(0.186385 -4.34079e-18 -3.51979e-18)
(0.173325 -3.45008e-18 -3.10244e-18)
(0.159222 -4.16693e-18 -3.07786e-18)
(0.143766 -3.7351e-18 -3.42655e-18)
(0.126702 -1.83983e-18 -3.82442e-18)
(0.108056 -1.54333e-18 -4.06167e-18)
(0.0883022 -1.47888e-18 -4.11381e-18)
(0.0681822 -9.31108e-19 -4.15543e-18)
(0.04825 -3.57786e-19 -4.07194e-18)
(0.0287126 -2.83892e-19 -4.32181e-18)
(0.00958557 6.73686e-20 -5.61489e-19)
(0.407706 -8.62584e-17 -2.53364e-16)
(0.407274 -1.29328e-16 -1.24972e-16)
(0.406459 -9.11745e-17 -8.53246e-17)
(0.405295 -8.81338e-17 -3.80149e-17)
(0.403811 -7.31254e-17 -2.15329e-17)
(0.402027 -6.59275e-17 -1.38027e-17)
(0.399959 -5.77613e-17 -1.36596e-17)
(0.397619 -5.61834e-17 -5.43635e-18)
(0.395015 -4.50337e-17 -1.01431e-17)
(0.392154 -3.82816e-17 -1.23125e-17)
(0.389039 -3.73176e-17 -6.63897e-18)
(0.385672 -3.54208e-17 -5.88338e-18)
(0.382057 -3.17664e-17 -1.3691e-17)
(0.378193 -2.60371e-17 -9.38873e-18)
(0.37408 -2.28551e-17 -7.59867e-18)
(0.369719 -2.22638e-17 -7.36807e-18)
(0.365108 -2.20645e-17 -1.05644e-17)
(0.360246 -1.60483e-17 -8.65606e-18)
(0.355137 -1.59077e-17 -1.10352e-17)
(0.349775 -1.17947e-17 -1.202e-17)
(0.344156 -6.56983e-18 -7.63734e-18)
(0.338285 -1.02773e-17 -4.15313e-18)
(0.332159 -1.13832e-17 -6.37344e-18)
(0.325771 -8.85759e-18 -7.2296e-18)
(0.319111 -8.50976e-18 -5.62082e-18)
(0.312173 -7.28166e-18 -1.42477e-18)
(0.304951 -5.50112e-18 -1.6629e-18)
(0.297424 -4.81723e-18 -4.25707e-18)
(0.289569 -4.13892e-18 -4.40168e-18)
(0.281366 -4.37483e-18 -4.11066e-18)
(0.272796 -5.36048e-18 -3.17582e-18)
(0.26384 -4.73488e-18 -3.18485e-18)
(0.254474 -3.34696e-18 -2.95242e-18)
(0.244659 -3.01534e-18 -3.40381e-18)
(0.234346 -2.80611e-18 -3.40523e-18)
(0.223473 -3.23278e-18 -4.19653e-18)
(0.21195 -3.82536e-18 -4.77204e-18)
(0.199637 -3.1531e-18 -4.1238e-18)
(0.186385 -2.72649e-18 -3.66019e-18)
(0.171984 -3.62253e-18 -3.27564e-18)
(0.156055 -3.16683e-18 -3.32195e-18)
(0.138186 -1.96371e-18 -4.13396e-18)
(0.118298 -1.68596e-18 -4.47535e-18)
(0.0968744 -1.44314e-18 -4.71347e-18)
(0.0748322 -8.18217e-19 -4.39314e-18)
(0.052925 -4.37856e-19 -4.45841e-18)
(0.031463 -2.59958e-19 -4.83467e-18)
(0.0104889 5.67834e-20 -5.4482e-19)
(0.424866 -7.22627e-17 -2.28357e-16)
(0.424417 -1.12378e-16 -1.31206e-16)
(0.423568 -8.32933e-17 -8.55678e-17)
(0.422355 -8.19585e-17 -3.79758e-17)
(0.420806 -7.04749e-17 -3.02999e-17)
(0.418943 -6.41455e-17 -1.25868e-17)
(0.41678 -5.67124e-17 -1.40813e-17)
(0.414331 -5.49939e-17 -8.13029e-18)
(0.411602 -4.65501e-17 -8.35702e-18)
(0.408599 -3.91239e-17 -9.98832e-18)
(0.405327 -3.60347e-17 -2.50112e-18)
(0.401789 -3.54456e-17 -4.72707e-18)
(0.397986 -3.24194e-17 -1.24722e-17)
(0.393922 -2.57869e-17 -1.1649e-17)
(0.389594 -2.31146e-17 -7.65913e-18)
(0.385011 -2.27114e-17 -1.11571e-17)
(0.38017 -2.15196e-17 -1.1717e-17)
(0.375073 -1.65985e-17 -1.00947e-17)
(0.369728 -1.69e-17 -1.0894e-17)
(0.364137 -1.23639e-17 -1.11871e-17)
(0.358298 -7.08972e-18 -1.03773e-17)
(0.35221 -1.04302e-17 -7.99358e-18)
(0.345872 -1.15921e-17 -9.34479e-18)
(0.339284 -8.25602e-18 -9.09569e-18)
(0.332433 -6.04087e-18 -6.18306e-18)
(0.325313 -5.9672e-18 -1.80344e-18)
(0.317915 -7.07517e-18 -1.71717e-18)
(0.310226 -6.73837e-18 -3.29573e-18)
(0.302227 -4.69035e-18 -5.35733e-18)
(0.293908 -3.91444e-18 -4.92769e-18)
(0.285255 -5.06306e-18 -3.09597e-18)
(0.276246 -4.84351e-18 -2.7939e-18)
(0.26685 -3.5902e-18 -3.40122e-18)
(0.257022 -3.43731e-18 -3.30585e-18)
(0.246706 -3.49144e-18 -3.43471e-18)
(0.23583 -3.77037e-18 -3.84972e-18)
(0.224298 -3.20447e-18 -3.88632e-18)
(0.21195 -2.24261e-18 -3.61247e-18)
(0.198579 -1.52766e-18 -4.02028e-18)
(0.183944 -2.663e-18 -3.38273e-18)
(0.167605 -3.55895e-18 -3.92e-18)
(0.149035 -2.35043e-18 -4.60882e-18)
(0.128042 -1.75619e-18 -4.9136e-18)
(0.105088 -1.29982e-18 -5.14884e-18)
(0.0812334 -7.98082e-19 -5.16185e-18)
(0.0574343 -5.81598e-19 -5.39928e-18)
(0.0341179 -5.04961e-19 -5.85378e-18)
(0.0113612 3.58922e-20 -7.86978e-19)
(0.440287 -6.0877e-17 -2.09843e-16)
(0.439819 -9.69233e-17 -1.31816e-16)
(0.438933 -7.48398e-17 -8.5977e-17)
(0.437667 -7.72874e-17 -3.99848e-17)
(0.43605 -6.75926e-17 -3.71289e-17)
(0.434102 -6.15594e-17 -2.05204e-17)
(0.43184 -5.64837e-17 -1.64039e-17)
(0.429274 -5.4269e-17 -1.39968e-17)
(0.426412 -4.70132e-17 -1.04846e-17)
(0.423262 -3.78048e-17 -8.64572e-18)
(0.419827 -3.49979e-17 4.04914e-20)
(0.416112 -3.71793e-17 -4.55827e-18)
(0.412119 -3.34142e-17 -1.43677e-17)
(0.407859 -2.52521e-17 -1.45229e-17)
(0.403325 -2.35538e-17 -1.23476e-17)
(0.398534 -2.32325e-17 -1.6425e-17)
(0.393493 -2.09453e-17 -1.32977e-17)
(0.388202 -1.66997e-17 -1.04437e-17)
(0.382664 -1.71479e-17 -1.03681e-17)
(0.376887 -1.32425e-17 -1.26909e-17)
(0.37087 -7.80992e-18 -1.13745e-17)
(0.364609 -1.0918e-17 -1.15178e-17)
(0.358103 -1.18758e-17 -1.09421e-17)
(0.351351 -7.65161e-18 -8.95593e-18)
(0.344348 -5.17489e-18 -6.67056e-18)
(0.337087 -5.45184e-18 -6.48506e-18)
(0.329562 -7.30332e-18 -6.54247e-18)
(0.321761 -7.85344e-18 -4.51462e-18)
(0.313681 -5.87255e-18 -6.24727e-18)
(0.305312 -3.69937e-18 -5.28077e-18)
(0.296639 -4.60882e-18 -3.40409e-18)
(0.287632 -5.37662e-18 -4.23962e-18)
(0.278256 -4.12048e-18 -4.37312e-18)
(0.268461 -3.40886e-18 -4.65116e-18)
(0.258185 -3.33495e-18 -3.94082e-18)
(0.247345 -3.26711e-18 -3.32671e-18)
(0.23583 -2.98408e-18 -2.80527e-18)
(0.223473 -2.52788e-18 -3.69383e-18)
(0.210029 -1.64034e-18 -4.75273e-18)
(0.195199 -2.36589e-18 -5.41375e-18)
(0.178486 -3.37072e-18 -5.15969e-18)
(0.159279 -2.09076e-18 -5.52418e-18)
(0.137288 -1.68416e-18 -6.00287e-18)
(0.112926 -1.6781e-18 -6.37444e-18)
(0.0873652 -1.48503e-18 -6.57654e-18)
(0.0617614 -9.87803e-19 -6.84918e-18)
(0.0366673 -5.02541e-19 -7.23998e-18)
(0.012199 -1.33273e-20 -1.09131e-18)
(0.454281 -5.08048e-17 -1.92188e-16)
(0.453793 -8.31656e-17 -1.30969e-16)
(0.452868 -6.68029e-17 -8.71975e-17)
(0.451545 -7.2663e-17 -4.18194e-17)
(0.449854 -6.64347e-17 -4.20899e-17)
(0.447815 -5.88343e-17 -3.27205e-17)
(0.445445 -5.5034e-17 -1.92097e-17)
(0.442756 -5.32598e-17 -1.95134e-17)
(0.439755 -4.62916e-17 -1.34872e-17)
(0.436451 -3.71156e-17 -1.19374e-17)
(0.432849 -3.42149e-17 -1.11522e-17)
(0.428959 -3.84965e-17 -7.54654e-18)
(0.424784 -3.49279e-17 -1.22325e-17)
(0.42034 -2.58829e-17 -1.57176e-17)
(0.415635 -2.44247e-17 -1.90771e-17)
(0.410673 -2.24695e-17 -1.93341e-17)
(0.405465 -1.88514e-17 -1.61556e-17)
(0.400014 -1.63618e-17 -1.0238e-17)
(0.394319 -1.85526e-17 -1.14757e-17)
(0.388386 -1.42747e-17 -1.48002e-17)
(0.382216 -9.09272e-18 -1.30123e-17)
(0.375808 -1.12753e-17 -1.42432e-17)
(0.369164 -1.04813e-17 -1.23626e-17)
(0.362284 -6.93971e-18 -9.215e-18)
(0.355165 -6.10375e-18 -6.68444e-18)
(0.347803 -7.22705e-18 -9.25101e-18)
(0.340193 -6.82945e-18 -9.92285e-18)
(0.332337 -7.25308e-18 -6.91546e-18)
(0.324231 -5.82922e-18 -7.11307e-18)
(0.315861 -2.90738e-18 -7.06857e-18)
(0.307207 -5.30692e-18 -6.39233e-18)
(0.298237 -6.02648e-18 -5.77483e-18)
(0.288912 -4.25322e-18 -5.4001e-18)
(0.279178 -3.15952e-18 -5.79517e-18)
(0.268967 -2.12235e-18 -5.34376e-18)
(0.258185 -2.43793e-18 -4.34428e-18)
(0.246706 -3.20457e-18 -3.57524e-18)
(0.234346 -3.39486e-18 -4.46107e-18)
(0.22084 -2.10167e-18 -5.02667e-18)
(0.205824 -1.35541e-18 -5.84248e-18)
(0.18875 -1.74625e-18 -5.43392e-18)
(0.168952 -1.70329e-18 -6.12519e-18)
(0.146047 -1.58991e-18 -6.75898e-18)
(0.120384 -1.43485e-18 -7.55842e-18)
(0.0932193 -1.10918e-18 -7.76237e-18)
(0.0658985 -7.84533e-19 -7.65599e-18)
(0.039106 -1.60131e-19 -8.12524e-18)
(0.0130005 -1.1037e-20 -1.05498e-18)
(0.467088 -4.28749e-17 -1.69108e-16)
(0.466577 -7.12734e-17 -1.22661e-16)
(0.465609 -5.84687e-17 -8.57852e-17)
(0.464224 -6.85727e-17 -4.63424e-17)
(0.462453 -6.59914e-17 -4.48484e-17)
(0.460317 -5.58746e-17 -3.55673e-17)
(0.457832 -5.32535e-17 -2.10673e-17)
(0.455013 -5.27489e-17 -1.81836e-17)
(0.451868 -4.59816e-17 -1.56225e-17)
(0.44841 -3.83584e-17 -1.45056e-17)
(0.444647 -3.31816e-17 -1.67623e-17)
(0.440596 -3.5783e-17 -1.13572e-17)
(0.436269 -3.52501e-17 -8.54149e-18)
(0.431674 -2.83985e-17 -1.47765e-17)
(0.426825 -2.51361e-17 -2.1667e-17)
(0.42172 -2.17586e-17 -1.87395e-17)
(0.416368 -1.73134e-17 -1.89351e-17)
(0.410774 -1.58093e-17 -1.28559e-17)
(0.404941 -1.96946e-17 -1.50774e-17)
(0.398873 -1.50335e-17 -1.5221e-17)
(0.392576 -9.69213e-18 -1.70558e-17)
(0.386049 -1.16726e-17 -1.59726e-17)
(0.379297 -9.86645e-18 -1.36621e-17)
(0.372321 -5.93441e-18 -1.10026e-17)
(0.365121 -7.11151e-18 -1.0152e-17)
(0.357696 -9.07514e-18 -1.00604e-17)
(0.350051 -6.8977e-18 -1.16703e-17)
(0.342186 -6.78433e-18 -8.6786e-18)
(0.334092 -6.70743e-18 -7.88e-18)
(0.325752 -4.2501e-18 -1.0272e-17)
(0.317142 -4.44863e-18 -1.09138e-17)
(0.30823 -4.81765e-18 -7.41273e-18)
(0.298973 -4.25011e-18 -6.27383e-18)
(0.289314 -3.29965e-18 -5.623e-18)
(0.279178 -1.76819e-18 -5.74111e-18)
(0.268461 -1.06939e-18 -5.14811e-18)
(0.257022 -2.39432e-18 -4.2727e-18)
(0.244659 -2.79563e-18 -4.17206e-18)
(0.231084 -1.62361e-18 -4.57174e-18)
(0.215879 -1.07368e-18 -5.04656e-18)
(0.198449 -1.41672e-18 -5.76141e-18)
(0.178092 -1.59881e-18 -6.71897e-18)
(0.154339 -1.4942e-18 -7.91198e-18)
(0.12747 -1.67073e-18 -8.37175e-18)
(0.0987966 -6.87311e-19 -8.40925e-18)
(0.0698446 -5.76418e-19 -8.55457e-18)
(0.0414328 -2.95872e-19 -9.17525e-18)
(0.0137653 -2.83371e-20 -1.19316e-18)
(0.478887 -3.61745e-17 -1.48274e-16)
(0.478352 -6.23078e-17 -1.108e-16)
(0.477337 -5.28836e-17 -7.90374e-17)
(0.475886 -6.4401e-17 -5.17927e-17)
(0.474029 -6.41068e-17 -4.20012e-17)
(0.471789 -5.30962e-17 -3.73172e-17)
(0.469185 -5.07939e-17 -2.26608e-17)
(0.466234 -5.19874e-17 -1.64385e-17)
(0.462947 -4.62851e-17 -1.92024e-17)
(0.459346 -3.87227e-17 -1.66905e-17)
(0.455448 -3.32003e-17 -1.48307e-17)
(0.451264 -3.40395e-17 -1.49042e-17)
(0.446809 -3.4971e-17 -7.30987e-18)
(0.442086 -3.10753e-17 -1.53983e-17)
(0.437105 -2.58972e-17 -2.15723e-17)
(0.43187 -2.15228e-17 -2.00088e-17)
(0.42639 -1.69282e-17 -2.01172e-17)
(0.420671 -1.59604e-17 -1.67294e-17)
(0.414718 -1.975e-17 -1.64947e-17)
(0.408539 -1.61036e-17 -1.78159e-17)
(0.402139 -1.12835e-17 -2.20708e-17)
(0.395521 -1.0746e-17 -1.84796e-17)
(0.38869 -9.03649e-18 -1.45671e-17)
(0.381649 -6.86426e-18 -1.33108e-17)
(0.374402 -7.40378e-18 -1.33458e-17)
(0.366957 -9.91684e-18 -1.15824e-17)
(0.359318 -7.3193e-18 -1.11407e-17)
(0.351475 -5.66357e-18 -9.65623e-18)
(0.343417 -7.84144e-18 -9.15193e-18)
(0.335126 -6.22021e-18 -9.63306e-18)
(0.326575 -3.39604e-18 -9.85293e-18)
(0.317733 -2.15595e-18 -8.42228e-18)
(0.308552 -2.72308e-18 -6.93745e-18)
(0.298973 -2.66132e-18 -5.65052e-18)
(0.288912 -1.66571e-18 -5.24818e-18)
(0.278256 -7.20811e-19 -4.76985e-18)
(0.26685 -1.60914e-18 -4.52862e-18)
(0.254474 -2.9854e-18 -3.79596e-18)
(0.240814 -2.37683e-18 -3.93994e-18)
(0.225409 -1.66546e-18 -5.00214e-18)
(0.207623 -1.94569e-18 -6.54587e-18)
(0.186731 -1.97143e-18 -7.08476e-18)
(0.162187 -1.03307e-18 -8.0497e-18)
(0.134195 3.12993e-20 -8.61233e-18)
(0.104104 -1.3746e-21 -9.00835e-18)
(0.0736031 -3.7317e-19 -9.40457e-18)
(0.0436493 -1.19163e-19 -1.01366e-17)
(0.014494 9.08441e-20 -1.25677e-18)
(0.489819 -3.0559e-17 -1.37858e-16)
(0.489257 -5.36711e-17 -1.1048e-16)
(0.488192 -4.79926e-17 -7.8514e-17)
(0.486669 -6.0644e-17 -5.10935e-17)
(0.484722 -6.2605e-17 -4.0334e-17)
(0.482375 -5.14405e-17 -3.92709e-17)
(0.479652 -4.80803e-17 -2.46363e-17)
(0.476575 -5.22351e-17 -2.14526e-17)
(0.473168 -4.69374e-17 -2.04155e-17)
(0.469449 -3.79594e-17 -2.04757e-17)
(0.465437 -3.3028e-17 -1.87041e-17)
(0.461139 -3.1831e-17 -1.7249e-17)
(0.456565 -3.43285e-17 -1.03502e-17)
(0.451722 -3.35591e-17 -1.61733e-17)
(0.446622 -2.68069e-17 -2.00288e-17)
(0.441271 -2.15664e-17 -2.154e-17)
(0.435678 -1.68856e-17 -1.76573e-17)
(0.429853 -1.54976e-17 -1.73491e-17)
(0.423802 -2.02674e-17 -1.72495e-17)
(0.417535 -1.87455e-17 -2.05689e-17)
(0.411056 -1.17249e-17 -2.30697e-17)