/*--------------------------------*- C++ -*----------------------------------*\
| =========                 |                                                 |
| \\      /  F ield         | OpenFOAM: The Open Source CFD Toolbox           |
|  \\    /   O peration     | Version:  2112                                  |
|   \\  /    A nd           | Website:  www.openfoam.com                      |
|    \\/     M anipulation  |                                                 |
\*---------------------------------------------------------------------------*/
FoamFile
{
    version     2.0;
    format      ascii;
    arch        "LSB;label=32;scalar=64";
    class       volVectorField;
    location    "809";
    object      vorticity_HF;
}
// * * * * * * * * * * * * * * * * * * * * * * * * * * * * * * * * * * * * * //

dimensions      [0 0 -1 0 0 0 0];

internalField   nonuniform List<vector> 
2304
(
(0.0187377 15.6802 0.000570538)
(0.055818 15.6613 0.00197253)
(0.0874927 15.6173 0.00404337)
(0.114225 15.5377 0.00631164)
(0.140584 15.4335 0.00770407)
(0.166062 15.327 0.00842606)
(0.199341 15.2156 0.00830117)
(0.238478 15.1186 0.00803762)
(0.2766 15.0213 0.00930763)
(0.312558 14.906 0.0107016)
(0.348248 14.7857 0.0113066)
(0.389828 14.6659 0.0114505)
(0.433917 14.5578 0.010586)
(0.479154 14.4647 0.00936127)
(0.528766 14.3858 0.00776867)
(0.58066 14.3282 0.00560403)
(0.633522 14.2934 0.00281361)
(0.687812 14.2854 -0.000621288)
(0.73766 14.3037 -0.00320557)
(0.78125 14.3368 -0.00549591)
(0.820719 14.3816 -0.00720195)
(0.852373 14.4322 -0.00756456)
(0.878263 14.4878 -0.00750928)
(0.892997 14.529 -0.00519302)
(0.896319 14.5478 -5.22322e-05)
(0.886589 14.5322 0.0073567)
(0.86394 14.4707 0.0177456)
(0.82772 14.3517 0.0311458)
(0.778931 14.1662 0.047882)
(0.718319 13.9056 0.065962)
(0.648759 13.5708 0.0866824)
(0.572247 13.1519 0.11555)
(0.488489 12.6268 0.13925)
(0.40924 12.0657 0.162959)
(0.328639 11.3935 0.188165)
(0.256325 10.6773 0.213878)
(0.193879 9.92481 0.249295)
(0.138948 9.071 0.278049)
(0.0953221 8.18503 0.284204)
(0.0643297 7.36492 0.293877)
(0.0405692 6.49927 0.307717)
(0.0245026 5.64509 0.332175)
(0.0134981 4.7716 0.359977)
(0.00663151 3.90785 0.359797)
(0.00260742 3.09527 0.369758)
(0.000521724 2.1991 0.396505)
(-6.10573e-05 1.37933 0.414044)
(-2.48984e-05 0.473538 0.473535)
(0.0168168 15.3122 0.00177729)
(0.0489505 15.2933 0.00607772)
(0.0781239 15.2502 0.0124784)
(0.103525 15.1737 0.0193156)
(0.128036 15.0778 0.0229318)
(0.154117 14.9706 0.0247215)
(0.182822 14.8664 0.0248101)
(0.215509 14.7743 0.0243111)
(0.246499 14.6849 0.0277649)
(0.27731 14.5777 0.0322341)
(0.308529 14.462 0.034462)
(0.344031 14.3472 0.0339135)
(0.379506 14.2512 0.0312943)
(0.418369 14.1637 0.0281047)
(0.457975 14.0949 0.0232635)
(0.500964 14.0438 0.0163259)
(0.541579 14.0163 0.00772134)
(0.583957 14.0148 -0.00222555)
(0.621866 14.0365 -0.0109503)
(0.656591 14.0768 -0.0168779)
(0.684448 14.1247 -0.0213696)
(0.707073 14.1797 -0.0257371)
(0.722726 14.2373 -0.0240916)
(0.729043 14.2805 -0.0151919)
(0.725446 14.3035 -0.000824151)
(0.711954 14.2893 0.021932)
(0.687621 14.2295 0.0535335)
(0.652784 14.1126 0.094411)
(0.609117 13.9318 0.144338)
(0.55688 13.6745 0.202216)
(0.498504 13.339 0.268368)
(0.43601 12.921 0.34955)
(0.372588 12.4208 0.419589)
(0.310885 11.8629 0.501858)
(0.249982 11.1998 0.593881)
(0.194135 10.4744 0.651168)
(0.146089 9.70467 0.741159)
(0.106169 8.90187 0.843249)
(0.0728209 8.04638 0.864669)
(0.047964 7.23423 0.89547)
(0.0290424 6.34941 0.960958)
(0.0159668 5.45832 1.00123)
(0.00829982 4.63535 1.04166)
(0.00388692 3.77471 1.05447)
(0.00189479 2.91747 1.14176)
(0.000834087 2.12978 1.18766)
(0.000379554 1.26274 1.25626)
(0.000250815 0.417247 1.37934)
(0.014474 14.5324 0.00299635)
(0.0411451 14.5147 0.0101888)
(0.0670682 14.4732 0.020579)
(0.0903819 14.4047 0.0311269)
(0.113329 14.3245 0.0382904)
(0.138717 14.2228 0.0416884)
(0.163179 14.1338 0.040535)
(0.187134 14.0595 0.039238)
(0.213194 13.9831 0.0447498)
(0.237226 13.8963 0.0527218)
(0.26412 13.7939 0.056717)
(0.290721 13.7036 0.0547923)
(0.320323 13.6238 0.0500805)
(0.350396 13.559 0.0444824)
(0.381458 13.5113 0.0359215)
(0.411466 13.4813 0.0248364)
(0.442389 13.4723 0.0100926)
(0.469336 13.4865 -0.0062714)
(0.494901 13.5234 -0.0208878)
(0.515919 13.5686 -0.0317192)
(0.532551 13.6317 -0.0391877)
(0.543719 13.7011 -0.0440619)
(0.546201 13.7555 -0.0415785)
(0.54345 13.8021 -0.0285614)
(0.532067 13.8264 -0.00299959)
(0.514207 13.8143 0.0364516)
(0.487743 13.7567 0.0899532)
(0.455341 13.6456 0.158102)
(0.417093 13.4703 0.243202)
(0.375433 13.2275 0.342179)
(0.330699 12.9036 0.453773)
(0.285856 12.5093 0.583242)
(0.242796 12.039 0.702676)
(0.198952 11.4698 0.843554)
(0.1611 10.8569 0.996989)
(0.126982 10.1958 1.1256)
(0.0928175 9.37235 1.25173)
(0.0690323 8.64471 1.3832)
(0.0484555 7.8965 1.44597)
(0.0294545 6.96009 1.53335)
(0.0178588 6.12224 1.66372)
(0.0091047 5.31086 1.69955)
(0.00405103 4.48018 1.76732)
(0.00212764 3.62499 1.86273)
(0.000979862 2.833 1.87037)
(0.00110846 1.98665 1.97998)
(0.000750716 1.17216 2.12672)
(0.000230902 0.39341 2.20939)
(0.0118538 13.3325 0.00414564)
(0.0337672 13.3172 0.0142795)
(0.0562088 13.279 0.0283719)
(0.0779465 13.2226 0.0416883)
(0.0995225 13.1539 0.0515713)
(0.121744 13.0765 0.055997)
(0.14221 13.0102 0.0527875)
(0.161372 12.9564 0.051395)
(0.181754 12.9002 0.0584873)
(0.201991 12.8372 0.0695198)
(0.222569 12.7647 0.0740238)
(0.242391 12.7076 0.0704197)
(0.265213 12.6582 0.0637457)
(0.287109 12.6269 0.0544412)
(0.309121 12.6101 0.0422062)
(0.328939 12.6104 0.0261184)
(0.348369 12.6301 0.00602715)
(0.362964 12.6673 -0.0169857)
(0.376103 12.7189 -0.0353881)
(0.385202 12.7832 -0.0505875)
(0.389445 12.856 -0.0644999)
(0.388394 12.9301 -0.067674)
(0.381257 12.9943 -0.0598314)
(0.36728 13.0462 -0.0412714)
(0.349649 13.0674 -0.00521763)
(0.325813 13.0569 0.0506114)
(0.298408 13.0034 0.125613)
(0.268523 12.9021 0.222222)
(0.236086 12.7406 0.339176)
(0.203731 12.517 0.478335)
(0.172451 12.225 0.6341)
(0.14345 11.863 0.810106)
(0.117827 11.4285 0.999405)
(0.0945767 10.9231 1.19044)
(0.0757427 10.3543 1.36949)
(0.0602267 9.72716 1.59904)
(0.0460116 9.02394 1.77348)
(0.0333655 8.3138 1.87114)
(0.0253407 7.5726 2.09781)
(0.0162437 6.70615 2.24905)
(0.00847305 5.95864 2.2746)
(0.00424022 5.139 2.37195)
(0.0023072 4.30667 2.51512)
(0.00113 3.54949 2.55564)
(0.00172886 2.71216 2.71154)
(0.00201298 1.86373 2.84953)
(0.00054013 1.14066 2.92045)
(-0.000716918 0.370127 3.07429)
(0.00956404 11.7973 0.00515126)
(0.027129 11.785 0.0179474)
(0.0455517 11.7528 0.0348301)
(0.0655134 11.7094 0.050818)
(0.0846818 11.6582 0.0623131)
(0.104341 11.6055 0.0662909)
(0.121686 11.565 0.0620317)
(0.137395 11.5339 0.0598903)
(0.152349 11.5034 0.0681891)
(0.169385 11.4663 0.080567)
(0.183674 11.4334 0.0844365)
(0.199168 11.4095 0.0786195)
(0.214327 11.3997 0.0688493)
(0.229982 11.4036 0.0560905)
(0.242959 11.4232 0.039899)
(0.253514 11.4561 0.0191506)
(0.261502 11.5018 -0.00629415)
(0.26605 11.5643 -0.0327692)
(0.266757 11.6325 -0.0570087)
(0.265255 11.7106 -0.0763293)
(0.258535 11.7856 -0.0889186)
(0.246012 11.859 -0.0930016)
(0.228588 11.9284 -0.0846854)
(0.206502 11.9798 -0.0567268)
(0.182103 12.0015 -0.00703555)
(0.154447 11.9926 0.0640161)
(0.126217 11.9463 0.159113)
(0.0977723 11.8572 0.280654)
(0.0714734 11.7232 0.430914)
(0.0477451 11.5342 0.604851)
(0.028552 11.2914 0.80208)
(0.0135042 10.9881 1.027)
(0.00436723 10.6335 1.24954)
(-0.000655433 10.2118 1.49755)
(-0.0024084 9.73681 1.75997)
(-0.00218719 9.17098 2.01179)
(0.00134137 8.62279 2.23568)
(0.00238671 7.94202 2.44396)
(0.00374943 7.20263 2.67282)
(0.00389183 6.54832 2.8159)
(0.00299524 5.78473 2.97552)
(0.00256882 4.98059 3.14494)
(0.00130979 4.18682 3.21712)
(0.00196459 3.39303 3.39187)
(0.00275354 2.55675 3.55646)
(0.00168476 1.86333 3.61878)
(-0.000296559 1.07058 3.76364)
(-0.00323869 0.363326 3.91877)
(0.00719869 10.0236 0.00595165)
(0.0209826 10.0145 0.0210236)
(0.0353193 9.98943 0.0402728)
(0.0526329 9.95845 0.0572275)
(0.0700245 9.92878 0.0693904)
(0.0867168 9.89875 0.0726458)
(0.100683 9.88394 0.0661122)
(0.111959 9.87928 0.0634207)
(0.123814 9.87116 0.0723379)
(0.135957 9.8655 0.0844398)
(0.146427 9.86621 0.0866139)
(0.15559 9.87904 0.0780916)
(0.164849 9.90061 0.064911)
(0.173503 9.93986 0.0480724)
(0.178947 9.99066 0.0277065)
(0.181091 10.049 0.00361071)
(0.17799 10.12 -0.0262638)
(0.171032 10.1966 -0.0576892)
(0.161281 10.2769 -0.082925)
(0.148236 10.3535 -0.102398)
(0.130747 10.4292 -0.117131)
(0.108354 10.5011 -0.12064)
(0.0818493 10.5611 -0.106456)
(0.0533676 10.6001 -0.0706276)
(0.0222976 10.6193 -0.0103755)
(-0.0070302 10.6109 0.0754724)
(-0.0355418 10.5742 0.18884)
(-0.0604808 10.5052 0.33093)
(-0.0806611 10.4032 0.503549)
(-0.0950933 10.2666 0.708056)
(-0.103408 10.0895 0.937962)
(-0.105057 9.8661 1.19248)
(-0.100496 9.61283 1.47235)
(-0.0917928 9.27749 1.76136)
(-0.0771987 8.90791 2.06235)
(-0.0608516 8.47451 2.37415)
(-0.0447838 8.0192 2.67124)
(-0.0282528 7.42333 2.95413)
(-0.0165683 6.83626 3.20764)
(-0.00788279 6.20689 3.43611)
(-0.00252075 5.48023 3.64396)
(0.000722517 4.76253 3.82981)
(0.00179027 4.03363 4.03527)
(0.00241927 3.22804 4.18572)
(0.0021548 2.50689 4.30631)
(0.00067474 1.77544 4.48056)
(-0.00317418 1.04398 4.63629)
(-0.00807766 0.357019 4.77287)
(0.00503945 8.32785 0.00654682)
(0.0157603 8.32119 0.0233578)
(0.0270924 8.30352 0.0440334)
(0.041107 8.28541 0.0611993)
(0.0555923 8.27084 0.0729876)
(0.0701773 8.26273 0.0745756)
(0.0821461 8.2684 0.0657225)
(0.0905882 8.28064 0.0624385)
(0.0985869 8.29081 0.0710273)
(0.106787 8.30647 0.0814983)
(0.113919 8.33688 0.081)
(0.117632 8.37845 0.0699011)
(0.120651 8.42349 0.0528473)
(0.122173 8.48109 0.0314871)
(0.12005 8.55072 0.00882632)
(0.114094 8.6234 -0.0193529)
(0.103187 8.70022 -0.0521419)
(0.0854438 8.78178 -0.0836132)
(0.0651026 8.8587 -0.110146)
(0.0444748 8.92779 -0.13033)
(0.0165862 8.99691 -0.143557)
(-0.0100554 9.05022 -0.143931)
(-0.0457183 9.09666 -0.124564)
(-0.0774485 9.12349 -0.0811774)
(-0.110453 9.13354 -0.011501)
(-0.140744 9.12561 0.0852032)
(-0.166264 9.09972 0.210636)
(-0.1861 9.05547 0.367673)
(-0.199753 8.99011 0.557811)
(-0.205664 8.90317 0.779108)
(-0.204219 8.79393 1.03488)
(-0.195844 8.65108 1.31671)
(-0.180665 8.47548 1.62401)
(-0.159129 8.25796 1.96643)
(-0.134172 7.99195 2.31968)
(-0.106208 7.66451 2.65845)
(-0.078383 7.30531 3.03847)
(-0.0505655 6.83994 3.38611)
(-0.0322594 6.38563 3.68798)
(-0.0145654 5.80113 4.00095)
(-0.00456815 5.20653 4.29469)
(0.000745188 4.53675 4.52828)
(0.00220278 3.83132 4.75103)
(0.00132268 3.14713 4.98724)
(0.000687719 2.37324 5.14856)
(-0.00318082 1.70101 5.29257)
(-0.00914391 1.0025 5.46026)
(-0.0167594 0.336173 5.65548)
(0.00349394 6.8697 0.00701885)
(0.0114632 6.86457 0.0250536)
(0.0208254 6.85353 0.0464027)
(0.0321377 6.8455 0.0630497)
(0.0439135 6.8433 0.0735696)
(0.0556723 6.84953 0.0729869)
(0.0661215 6.86928 0.0623197)
(0.0718116 6.89053 0.0585315)
(0.0762887 6.91274 0.0664074)
(0.0810703 6.94542 0.0733659)
(0.0852734 6.99289 0.0686218)
(0.0847454 7.0495 0.0555558)
(0.0817635 7.10901 0.0370045)
(0.0765646 7.17136 0.0119526)
(0.0682609 7.24204 -0.014511)
(0.0549263 7.31865 -0.0426925)
(0.0357438 7.39146 -0.0775622)
(0.0118508 7.45948 -0.111367)
(-0.0154124 7.52386 -0.134533)
(-0.0461029 7.58119 -0.153523)
(-0.073562 7.62658 -0.16434)
(-0.110175 7.66517 -0.160898)
(-0.144123 7.69121 -0.13724)
(-0.179531 7.7039 -0.0867176)
(-0.210573 7.7063 -0.0111366)
(-0.237421 7.70054 0.0920347)
(-0.258508 7.6865 0.224525)
(-0.272703 7.6648 0.389123)
(-0.278636 7.6353 0.587999)
(-0.276767 7.59618 0.821884)
(-0.267381 7.54154 1.09098)
(-0.250661 7.47312 1.39473)
(-0.226673 7.37212 1.73397)
(-0.198894 7.24321 2.0975)
(-0.164793 7.07934 2.49425)
(-0.130655 6.86862 2.89749)
(-0.0915081 6.56564 3.32951)
(-0.0614616 6.26211 3.71954)
(-0.034879 5.86629 4.11634)
(-0.0116913 5.37948 4.51249)
(-0.000854351 4.87462 4.85209)
(0.00597954 4.28658 5.20534)
(0.00527046 3.64821 5.48901)
(0.00105098 2.97666 5.78356)
(-0.00308802 2.28547 5.95866)
(-0.0107856 1.66509 6.12351)
(-0.0200509 0.955479 6.34697)
(-0.0302317 0.304616 6.50727)
(0.00240495 5.62653 0.00740878)
(0.00792641 5.62244 0.0261521)
(0.0151424 5.61714 0.0474256)
(0.0238664 5.61695 0.0630587)
(0.0335479 5.62306 0.0721089)
(0.0427361 5.63983 0.0691057)
(0.0507331 5.66568 0.0568229)
(0.0538742 5.69209 0.0525803)
(0.0549504 5.72095 0.0579275)
(0.0567674 5.76383 0.0615364)
(0.0581542 5.81998 0.0540041)
(0.0540301 5.87862 0.0384338)
(0.0464545 5.93826 0.0183078)
(0.0344944 6.00431 -0.00792908)
(0.0193135 6.0697 -0.0367716)
(0.000532079 6.1347 -0.0677349)
(-0.0236885 6.1969 -0.0997289)
(-0.0544041 6.24739 -0.130298)
(-0.0857584 6.29025 -0.155115)
(-0.12084 6.32989 -0.169901)
(-0.151158 6.35385 -0.177389)
(-0.190151 6.37412 -0.171085)
(-0.22118 6.37997 -0.141434)
(-0.256641 6.38 -0.0879809)
(-0.283209 6.37656 -0.00975354)
(-0.304531 6.37293 0.0952779)
(-0.319325 6.3699 0.229535)
(-0.326139 6.36785 0.395926)
(-0.324703 6.36664 0.5974)
(-0.315637 6.36442 0.835752)
(-0.298994 6.35826 1.11268)
(-0.27537 6.34302 1.4291)
(-0.246166 6.31206 1.78333)
(-0.211936 6.26066 2.1794)
(-0.171718 6.16822 2.6048)
(-0.133576 6.05066 3.06854)
(-0.0915821 5.85889 3.54311)
(-0.0570009 5.63758 3.9975)
(-0.0236575 5.30978 4.49521)
(-0.000653285 4.93929 4.94755)
(0.0111574 4.50173 5.389)
(0.0153456 3.99772 5.81086)
(0.00978413 3.4359 6.18449)
(0.000512312 2.80885 6.54724)
(-0.0101311 2.24995 6.7164)
(-0.0210464 1.5343 6.96177)
(-0.0371857 0.906596 7.24209)
(-0.0508326 0.293907 7.36346)
(0.00164944 4.60525 0.00773715)
(0.00518199 4.60234 0.0267381)
(0.0104164 4.60162 0.0473913)
(0.0169993 4.60855 0.0618268)
(0.0241299 4.62128 0.06876)
(0.0312897 4.6441 0.0637137)
(0.0362503 4.6693 0.050504)
(0.036265 4.69596 0.045445)
(0.0341152 4.72746 0.0485929)
(0.0329193 4.77536 0.0476541)
(0.032033 4.83064 0.037537)
(0.0248145 4.88866 0.0221224)
(0.0116984 4.94739 -0.000216198)
(-0.00453691 5.00235 -0.0287391)
(-0.02535 5.05802 -0.0566661)
(-0.0481453 5.10696 -0.0855904)
(-0.0768118 5.1481 -0.117291)
(-0.110776 5.18251 -0.145829)
(-0.147747 5.20601 -0.166284)
(-0.177614 5.22167 -0.179015)
(-0.217263 5.23116 -0.182905)
(-0.248429 5.22888 -0.172143)
(-0.279929 5.22353 -0.139778)
(-0.307114 5.21272 -0.0849245)
(-0.328875 5.20496 -0.00752038)
(-0.34413 5.20261 0.095498)
(-0.351728 5.20701 0.227171)
(-0.351176 5.2187 0.390739)
(-0.342848 5.23658 0.589715)
(-0.326829 5.26042 0.826765)
(-0.304111 5.28665 1.10471)
(-0.275608 5.30995 1.42635)
(-0.240868 5.32996 1.79348)
(-0.201705 5.32646 2.2067)
(-0.160776 5.30914 2.66107)
(-0.117982 5.24622 3.15525)
(-0.0728775 5.15577 3.68937)
(-0.0370546 5.00442 4.22227)
(-0.000584137 4.75534 4.78269)
(0.0190674 4.50359 5.32066)
(0.0309176 4.10838 5.83666)
(0.0308894 3.69412 6.37223)
(0.0185587 3.20794 6.85121)
(0.000583873 2.67091 7.19969)
(-0.0180893 2.0845 7.56212)
(-0.0381802 1.45492 7.88372)
(-0.059527 0.865558 8.04543)
(-0.0797994 0.287909 8.20948)
(0.000928308 3.78214 0.00794238)
(0.00311994 3.78084 0.0268145)
(0.00662007 3.78306 0.0461394)
(0.0116987 3.79548 0.0589415)
(0.0164852 3.81167 0.0643675)
(0.0203231 3.83519 0.0582548)
(0.0214198 3.85998 0.0445815)
(0.0186093 3.88365 0.0381859)
(0.0137135 3.91518 0.0372731)
(0.0105565 3.96039 0.0336001)
(0.00658221 4.01416 0.0219697)
(-0.0042649 4.06886 0.00384738)
(-0.0202795 4.11907 -0.0168058)
(-0.0408607 4.16188 -0.0436164)
(-0.0646919 4.20039 -0.0720484)
(-0.0915982 4.23402 -0.0994975)
(-0.122723 4.25946 -0.127512)
(-0.157175 4.27207 -0.152459)
(-0.192921 4.27842 -0.170776)
(-0.227719 4.27568 -0.180341)
(-0.260315 4.27096 -0.18029)
(-0.289157 4.25564 -0.167379)
(-0.317581 4.23563 -0.133415)
(-0.337935 4.22062 -0.0785001)
(-0.352627 4.21041 -0.00442639)
(-0.361039 4.20807 0.0940148)
(-0.361845 4.21583 0.219969)
(-0.354313 4.23411 0.377657)
(-0.339264 4.26236 0.570484)
(-0.317406 4.29945 0.802004)
(-0.289756 4.34288 1.07777)
(-0.255361 4.39285 1.39697)
(-0.218596 4.43656 1.77039)
(-0.174882 4.47965 2.19539)
(-0.133191 4.49809 2.67163)
(-0.0843221 4.49391 3.20215)
(-0.0435144 4.45164 3.76368)
(-0.00266182 4.37057 4.38089)
(0.030811 4.21299 4.99439)
(0.0498986 4.00948 5.62622)
(0.0591783 3.72351 6.27517)
(0.050274 3.37382 6.84157)
(0.0298615 2.95084 7.40897)
(0.00158556 2.45646 7.95874)
(-0.0253842 1.8697 8.30942)
(-0.0574364 1.38328 8.6281)
(-0.0911047 0.825122 8.91747)
(-0.119921 0.274783 9.0755)
(0.000205068 3.12495 0.00798343)
(0.00144455 3.12524 0.0265335)
(0.00309374 3.12949 0.0443125)
(0.00634223 3.14552 0.0556273)
(0.00898167 3.16379 0.0597559)
(0.00947415 3.18561 0.0522894)
(0.00691531 3.20777 0.0385399)
(0.000917129 3.22827 0.0311421)
(-0.00621673 3.25762 0.0278081)
(-0.0111066 3.29666 0.0196145)
(-0.0177125 3.34613 0.00542149)
(-0.0313624 3.39085 -0.0102174)
(-0.0485063 3.42822 -0.0302024)
(-0.0728622 3.4629 -0.0561967)
(-0.0986717 3.48775 -0.082066)
(-0.128413 3.50532 -0.107278)
(-0.159134 3.51335 -0.131802)
(-0.194166 3.51277 -0.153334)
(-0.225664 3.50538 -0.167552)
(-0.259877 3.49075 -0.175544)
(-0.288407 3.46938 -0.173393)
(-0.314586 3.44692 -0.154751)
(-0.336078 3.42268 -0.121915)
(-0.35001 3.40265 -0.071557)
(-0.358946 3.38887 -0.000626631)
(-0.360865 3.38493 0.0922034)
(-0.354762 3.39189 0.211136)
(-0.341347 3.41023 0.360878)
(-0.320795 3.44039 0.54593)
(-0.293938 3.48129 0.77038)
(-0.261289 3.53182 1.03616)
(-0.224079 3.59163 1.3547)
(-0.183329 3.65037 1.72368)
(-0.137995 3.71478 2.15514)
(-0.0930698 3.76265 2.64829)
(-0.0455178 3.79744 3.1973)
(-0.00367096 3.79843 3.80742)
(0.039567 3.75649 4.46087)
(0.0674653 3.6864 5.16049)
(0.0870123 3.52328 5.8567)
(0.0882038 3.3159 6.56267)
(0.0765389 3.03735 7.29942)
(0.0462614 2.66479 8.00354)
(0.00357477 2.23172 8.61736)
(-0.0377765 1.77583 9.03011)
(-0.080702 1.24269 9.38489)
(-0.128648 0.740457 9.70694)
(-0.171554 0.249205 9.91635)
(-0.000326238 2.60379 0.00788081)
(-4.6972e-05 2.60505 0.0258512)
(4.35569e-06 2.61183 0.0416889)
(0.00143072 2.62812 0.0511632)
(0.00214438 2.6475 0.0548776)
(-0.000451957 2.66849 0.047414)
(-0.00651512 2.68527 0.0335938)
(-0.0158374 2.70252 0.0246731)
(-0.024703 2.72882 0.0178617)
(-0.0319183 2.7673 0.00738644)
(-0.0399846 2.80196 -0.0070515)
(-0.0546828 2.83545 -0.0226374)
(-0.0763112 2.86793 -0.0411319)
(-0.100225 2.88907 -0.064536)
(-0.127968 2.90215 -0.0876128)
(-0.156745 2.90694 -0.109206)
(-0.188629 2.90247 -0.130325)
(-0.218923 2.89166 -0.148893)
(-0.250117 2.87139 -0.160849)
(-0.27711 2.84953 -0.163383)
(-0.303858 2.82136 -0.158808)
(-0.32309 2.7921 -0.143654)
(-0.337621 2.76381 -0.109908)
(-0.347721 2.74061 -0.0596596)
(-0.350966 2.72511 0.00581442)
(-0.346928 2.71691 0.0920673)
(-0.335763 2.71989 0.203721)
(-0.317424 2.73396 0.345184)
(-0.29245 2.75981 0.520771)
(-0.261369 2.79802 0.73509)
(-0.225089 2.84809 0.993404)
(-0.185459 2.90537 1.30215)
(-0.141329 2.97251 1.66725)
(-0.0969913 3.03445 2.09725)
(-0.0484693 3.10209 2.5957)
(-0.00333251 3.15549 3.16813)
(0.0431747 3.19275 3.80456)
(0.0809038 3.19321 4.49778)
(0.11185 3.15139 5.25019)
(0.1285 3.06268 6.05073)
(0.126376 2.89212 6.85932)
(0.104295 2.65386 7.65785)
(0.0625036 2.36901 8.46379)
(0.00704428 1.99789 9.17626)
(-0.0510339 1.60317 9.73033)
(-0.112329 1.12467 10.1819)
(-0.174746 0.658493 10.4765)
(-0.232058 0.216111 10.6811)
(-0.000550453 2.19025 0.00771663)
(-0.00147386 2.19183 0.0247638)
(-0.00293715 2.20083 0.0390587)
(-0.00349354 2.21443 0.0472005)
(-0.00457596 2.23256 0.0497704)
(-0.00989493 2.25324 0.0425567)
(-0.0198992 2.26748 0.029355)
(-0.0311853 2.28165 0.0187815)
(-0.0411292 2.30448 0.00857952)
(-0.0494683 2.33475 -0.00294965)
(-0.0597442 2.36186 -0.0165652)
(-0.0759947 2.38649 -0.0324949)
(-0.0987174 2.40885 -0.0490448)
(-0.123181 2.42102 -0.0687206)
(-0.150698 2.42344 -0.0888252)
(-0.178495 2.41852 -0.107233)
(-0.207353 2.4075 -0.125173)
(-0.235135 2.38871 -0.139324)
(-0.261381 2.36302 -0.147826)
(-0.283915 2.33503 -0.151169)
(-0.302714 2.30382 -0.144186)
(-0.318703 2.26968 -0.123965)
(-0.329054 2.23729 -0.0932301)
(-0.332963 2.21227 -0.0491695)
(-0.331164 2.19213 0.0137338)
(-0.323284 2.18097 0.0954523)
(-0.308096 2.17771 0.199685)
(-0.285956 2.18468 0.332943)
(-0.257378 2.20356 0.499094)
(-0.22322 2.23425 0.702902)
(-0.184394 2.27731 0.950351)
(-0.142898 2.32942 1.25066)
(-0.0978457 2.39237 1.61105)
(-0.0514716 2.45642 2.03656)
(-0.00282037 2.52401 2.53266)
(0.0464232 2.5915 3.10626)
(0.0901739 2.64327 3.76807)
(0.128324 2.66842 4.50655)
(0.156867 2.65694 5.31048)
(0.166909 2.60115 6.16771)
(0.160599 2.49142 7.07503)
(0.132255 2.31304 7.98584)
(0.0782608 2.06131 8.90532)
(0.00837276 1.74881 9.71638)
(-0.0654405 1.37729 10.3415)
(-0.145984 0.992614 10.8651)
(-0.2282 0.593772 11.1973)
(-0.302304 0.188257 11.401)
(-0.00062373 1.86053 0.00753192)
(-0.00283536 1.86266 0.0234197)
(-0.00584015 1.87261 0.036327)
(-0.00829468 1.88489 0.043302)
(-0.0115576 1.90171 0.0448385)
(-0.0187643 1.91918 0.0380224)
(-0.0316179 1.93269 0.0255701)
(-0.043794 1.94488 0.0136887)
(-0.0546896 1.9636 0.00142713)
(-0.0640857 1.98499 -0.0111161)
(-0.0769585 2.0065 -0.0245214)
(-0.0945523 2.02322 -0.0392006)
(-0.116078 2.0354 -0.0537729)
(-0.140269 2.04055 -0.0700428)
(-0.165792 2.03581 -0.086451)
(-0.192388 2.02465 -0.102317)
(-0.217523 2.00819 -0.116946)
(-0.241306 1.98569 -0.128123)
(-0.260907 1.95916 -0.134739)
(-0.278629 1.92655 -0.133123)
(-0.293635 1.89079 -0.123895)
(-0.303676 1.85588 -0.106722)
(-0.308773 1.82321 -0.0765935)
(-0.309098 1.79336 -0.0320829)
(-0.303832 1.76992 0.0257132)
(-0.291914 1.75229 0.101621)
(-0.273928 1.74309 0.201096)
(-0.248895 1.74229 0.326263)
(-0.217897 1.75235 0.482878)
(-0.181796 1.7738 0.676133)
(-0.142046 1.80656 0.913923)
(-0.0981059 1.85044 1.20149)
(-0.0520416 1.90443 1.5511)
(-0.0036627 1.96915 1.97124)
(0.0467354 2.03525 2.46042)
(0.0929229 2.09875 3.04372)
(0.134147 2.15207 3.72079)
(0.171829 2.19632 4.48232)
(0.196521 2.20655 5.33107)
(0.207376 2.18021 6.25908)
(0.19437 2.09738 7.23783)
(0.156823 1.96928 8.24846)
(0.0928506 1.76423 9.27355)
(0.00671389 1.50627 10.2037)
(-0.0836355 1.18583 10.9173)
(-0.182079 0.847187 11.4675)
(-0.28732 0.504636 11.8575)
(-0.38055 0.160957 12.0693)
(-0.000908355 1.5973 0.00722408)
(-0.00421242 1.60026 0.0218666)
(-0.00845435 1.61037 0.0335544)
(-0.0128866 1.62135 0.0396599)
(-0.0177603 1.63533 0.0405115)
(-0.0273573 1.65088 0.03383)
(-0.0411042 1.66322 0.0217606)
(-0.0535337 1.67512 0.00918571)
(-0.0650331 1.68977 -0.00439688)
(-0.0766999 1.70547 -0.0174389)
(-0.091005 1.71991 -0.0300139)
(-0.10828 1.72933 -0.043105)
(-0.129064 1.73416 -0.0556394)
(-0.151616 1.73303 -0.0687385)
(-0.174542 1.72414 -0.0819701)
(-0.197304 1.70948 -0.0948603)
(-0.21966 1.68927 -0.106977)
(-0.238468 1.66418 -0.115425)
(-0.253776 1.63646 -0.117602)
(-0.26599 1.60207 -0.114766)
(-0.275023 1.56882 -0.104912)
(-0.280748 1.53055 -0.0845529)
(-0.282205 1.49455 -0.0550967)
(-0.278762 1.46196 -0.0153319)
(-0.270132 1.43441 0.0410869)
(-0.255925 1.41236 0.114164)
(-0.235185 1.3959 0.206941)
(-0.208515 1.38833 0.325836)
(-0.176154 1.38961 0.473905)
(-0.138886 1.4011 0.657617)
(-0.0978269 1.42313 0.883325)
(-0.0535864 1.45687 1.16123)
(-0.00616991 1.50023 1.49749)
(0.0422484 1.55326 1.9057)
(0.0903736 1.61366 2.39735)
(0.135422 1.66946 2.97861)
(0.178923 1.73007 3.6562)
(0.212875 1.77386 4.44185)
(0.235938 1.79968 5.33124)
(0.241345 1.79032 6.31161)
(0.222087 1.74105 7.36488)
(0.178051 1.63113 8.46525)
(0.102369 1.47804 9.60109)
(0.00222925 1.25946 10.6252)
(-0.105649 1.00288 11.4231)
(-0.224321 0.710449 12.035)
(-0.348672 0.420779 12.4289)
(-0.45895 0.139268 12.6359)
(-0.00164726 1.38665 0.00681362)
(-0.00572768 1.39038 0.0201465)
(-0.0107183 1.40021 0.0308747)
(-0.0168662 1.40981 0.036551)
(-0.0236886 1.422 0.0364866)
(-0.0354497 1.43608 0.0297952)
(-0.0488447 1.44697 0.018075)
(-0.0610683 1.45828 0.00508166)
(-0.0728347 1.46976 -0.00883103)
(-0.0863127 1.47973 -0.0217389)
(-0.100718 1.48792 -0.0332712)
(-0.117705 1.49155 -0.0446328)
(-0.136349 1.49119 -0.0551669)
(-0.156562 1.48594 -0.0656754)
(-0.176566 1.47436 -0.0759005)
(-0.196119 1.45748 -0.0860311)
(-0.213918 1.43573 -0.0948342)
(-0.228266 1.4093 -0.101215)
(-0.238653 1.38019 -0.101659)
(-0.246211 1.34859 -0.0954906)
(-0.251304 1.31079 -0.0821215)
(-0.253055 1.27264 -0.0615175)
(-0.251083 1.23703 -0.0329444)
(-0.244306 1.2006 0.00806149)
(-0.232952 1.16808 0.0602906)
(-0.216977 1.1423 0.129677)
(-0.194252 1.11998 0.219426)
(-0.166859 1.106 0.33126)
(-0.133022 1.09903 0.472181)
(-0.0952394 1.10156 0.646818)
(-0.0535638 1.11377 0.862958)
(-0.0085044 1.13572 1.12773)
(0.0380463 1.16889 1.45474)
(0.0852349 1.20961 1.85268)
(0.132885 1.25876 2.33334)
(0.177594 1.31174 2.91025)
(0.217125 1.36468 3.5963)
(0.249138 1.40866 4.39547)
(0.269568 1.43888 5.31004)
(0.269243 1.44218 6.34018)
(0.245755 1.40948 7.46762)
(0.193755 1.32919 8.64379)
(0.107019 1.20587 9.85783)
(-0.00642488 1.03693 10.9841)
(-0.130403 0.821156 11.8605)
(-0.266952 0.586911 12.5117)
(-0.411008 0.351129 12.9297)
(-0.540926 0.116931 13.1576)
(-0.00256085 1.21778 0.00628002)
(-0.00711772 1.22197 0.0183247)
(-0.0127279 1.23069 0.0283062)
(-0.0201559 1.23992 0.033485)
(-0.0290229 1.2512 0.0327343)
(-0.0413215 1.26302 0.0261315)
(-0.0542864 1.27358 0.0145753)
(-0.0665616 1.28398 0.001478)
(-0.0787535 1.29264 -0.0119571)
(-0.0925345 1.2972 -0.024111)
(-0.10691 1.3002 -0.0345118)
(-0.122612 1.29954 -0.0443542)
(-0.138834 1.29547 -0.0531786)
(-0.155738 1.28742 -0.0611707)
(-0.173041 1.27408 -0.0686668)
(-0.188737 1.2563 -0.076012)
(-0.202036 1.23378 -0.082429)
(-0.21194 1.20734 -0.0858344)
(-0.218471 1.17635 -0.0837565)
(-0.222262 1.14354 -0.0742478)
(-0.223762 1.10599 -0.0586485)
(-0.222525 1.06921 -0.0375909)
(-0.21719 1.02974 -0.00700176)
(-0.208007 0.992366 0.0326977)
(-0.194907 0.958885 0.0835864)
(-0.176067 0.926298 0.150927)
(-0.153348 0.901113 0.235847)
(-0.12438 0.880231 0.343345)
(-0.0904037 0.866394 0.477763)
(-0.0520723 0.860513 0.644127)
(-0.0101963 0.863556 0.850644)
(0.0339906 0.876021 1.10612)
(0.0799302 0.896678 1.4202)
(0.126928 0.928536 1.80731)
(0.171635 0.966041 2.28058)
(0.214236 1.00941 2.85198)
(0.251907 1.05364 3.53496)
(0.281044 1.0961 4.3449)
(0.296105 1.12448 5.28604)
(0.292425 1.13339 6.35463)
(0.262616 1.11207 7.53528)
(0.202369 1.05606 8.78563)
(0.106188 0.957633 10.0821)
(-0.0200116 0.819904 11.2868)
(-0.158817 0.649761 12.2313)
(-0.311437 0.464557 12.9173)
(-0.47265 0.275656 13.3517)
(-0.617872 0.0893941 13.5862)
(-0.0032699 1.08275 0.00570538)
(-0.00819757 1.08691 0.0166336)
(-0.0142496 1.09413 0.0257972)
(-0.022815 1.10348 0.0304711)
(-0.0330049 1.11373 0.0293431)
(-0.0454438 1.12427 0.0225615)
(-0.0581076 1.13445 0.0109727)
(-0.0705166 1.14389 -0.00164722)
(-0.0830773 1.1495 -0.0136627)
(-0.0961414 1.14983 -0.024617)
(-0.109363 1.14854 -0.0341517)
(-0.123128 1.14515 -0.0425562)
(-0.137176 1.13834 -0.0497128)
(-0.150988 1.12805 -0.0556624)
(-0.164706 1.11366 -0.0607169)
(-0.176791 1.09483 -0.065484)
(-0.186166 1.07249 -0.0687219)
(-0.192321 1.04487 -0.0691808)
(-0.195354 1.01357 -0.0644737)
(-0.195935 0.978633 -0.0525789)
(-0.194557 0.94287 -0.0347833)
(-0.190323 0.904149 -0.0105978)
(-0.182783 0.864408 0.0206272)
(-0.172017 0.827318 0.0597165)
(-0.156268 0.789433 0.110764)
(-0.136672 0.755597 0.17573)
(-0.112502 0.725164 0.257934)
(-0.0829852 0.699149 0.361584)
(-0.0491384 0.679696 0.490188)
(-0.011006 0.66677 0.649521)
(0.030289 0.661521 0.847443)
(0.0741218 0.664799 1.09308)
(0.11925 0.676787 1.39725)
(0.163927 0.696256 1.77338)
(0.207244 0.724293 2.23651)
(0.247399 0.757936 2.80062)
(0.281724 0.79421 3.48292)
(0.306729 0.827803 4.29886)
(0.317782 0.854231 5.25707)
(0.308222 0.864392 6.35962)
(0.272044 0.85127 7.58996)
(0.204462 0.808039 8.89837)
(0.0988191 0.734595 10.2642)
(-0.0383985 0.627631 11.5377)
(-0.188802 0.496554 12.5277)
(-0.355226 0.356944 13.2461)
(-0.531765 0.211228 13.7001)
(-0.688582 0.0687339 13.9327)
(-0.00361342 0.97449 0.00513074)
(-0.00898427 0.978257 0.0150928)
(-0.0155005 0.984298 0.0233936)
(-0.0248161 0.99373 0.0274123)
(-0.0360084 1.00366 0.0260011)
(-0.0481373 1.01346 0.0191179)
(-0.0604697 1.02235 0.00763559)
(-0.0730642 1.0299 -0.00404939)
(-0.0857833 1.03311 -0.0141857)
(-0.0974122 1.0312 -0.0236744)
(-0.108551 1.02683 -0.0324751)
(-0.120575 1.02091 -0.0397708)
(-0.132161 1.01241 -0.0451755)
(-0.143198 1.00058 -0.0491118)
(-0.153385 0.984774 -0.0517067)
(-0.161844 0.965194 -0.0540559)
(-0.167864 0.942084 -0.0545632)
(-0.170892 0.914494 -0.0514744)
(-0.171131 0.881456 -0.0433365)
(-0.169091 0.845355 -0.0291655)
(-0.165023 0.808482 -0.00893023)
(-0.158466 0.769727 0.0171333)
(-0.149318 0.730728 0.0489978)
(-0.136538 0.691734 0.0899807)
(-0.11973 0.653327 0.140817)
(-0.0988911 0.616706 0.204614)
(-0.0739074 0.58329 0.285178)
(-0.0445756 0.553681 0.384869)
(-0.0108074 0.529253 0.508711)
(0.0270239 0.51073 0.662295)
(0.0677222 0.499006 0.852696)
(0.110522 0.494344 1.08941)
(0.154336 0.497412 1.38422)
(0.197517 0.508082 1.75043)
(0.239014 0.525708 2.20338)
(0.276249 0.549458 2.7605)
(0.30677 0.576077 3.43943)
(0.327453 0.602581 4.25916)
(0.332791 0.623064 5.23176)
(0.317191 0.632036 6.36)
(0.274358 0.623203 7.6286)
(0.199486 0.59246 8.98674)
(0.0855537 0.536914 10.4069)
(-0.0607461 0.45973 11.7343)
(-0.22047 0.362375 12.7629)
(-0.397258 0.259558 13.5032)
(-0.585072 0.154061 13.9703)
(-0.751676 0.0511038 14.208)
(-0.00361733 0.886933 0.00461766)
(-0.0096075 0.89006 0.0137209)
(-0.0166437 0.895952 0.020985)
(-0.0264228 0.905182 0.0241942)
(-0.0378734 0.914817 0.0226613)
(-0.0496161 0.923978 0.0159548)
(-0.0617265 0.931516 0.00490657)
(-0.0744044 0.936432 -0.00576535)
(-0.0865353 0.938142 -0.0141342)
(-0.0966216 0.935301 -0.0219124)
(-0.105762 0.929277 -0.0295353)
(-0.115751 0.920891 -0.0358044)
(-0.125239 0.91054 -0.0397784)
(-0.133646 0.897203 -0.0415462)
(-0.140571 0.880123 -0.0418378)
(-0.145615 0.859863 -0.0416695)
(-0.148454 0.835263 -0.0391287)
(-0.148897 0.806795 -0.0321584)
(-0.146947 0.77282 -0.0203528)
(-0.143069 0.736602 -0.00390227)
(-0.136718 0.697507 0.0179868)
(-0.128154 0.658539 0.0461345)
(-0.117371 0.619727 0.080189)
(-0.103253 0.57945 0.121506)
(-0.085594 0.540762 0.173429)
(-0.0641485 0.502828 0.236916)