/*--------------------------------*- C++ -*----------------------------------*\
| =========                 |                                                 |
| \\      /  F ield         | OpenFOAM: The Open Source CFD Toolbox           |
|  \\    /   O peration     | Version:  2212                                  |
|   \\  /    A nd           | Website:  www.openfoam.com                      |
|    \\/     M anipulation  |                                                 |
\*---------------------------------------------------------------------------*/
FoamFile
{
    version     2.0;
    format      ascii;
    arch        "LSB;label=32;scalar=64";
    class       volVectorField;
    location    "5000";
    object      vorticity_KOSST;
}
// * * * * * * * * * * * * * * * * * * * * * * * * * * * * * * * * * * * * * //

dimensions      [0 0 -1 0 0 0 0];

internalField   nonuniform List<vector> 
2304
(
(9.40254e-16 16.1558 0.000890696)
(-9.85288e-15 16.1307 0.00264694)
(-1.39618e-14 16.0835 0.00435495)
(-6.79098e-15 16.0165 0.00603634)
(-5.30796e-15 15.9317 0.00770989)
(-4.9245e-15 15.8309 0.00938454)
(-3.53672e-15 15.7155 0.0110766)
(-2.55392e-15 15.5865 0.0127976)
(-2.88556e-15 15.4449 0.014562)
(-1.98586e-15 15.2917 0.0163838)
(-1.48436e-15 15.1273 0.0182703)
(-1.64069e-15 14.9523 0.0202303)
(-1.23143e-15 14.7673 0.0222807)
(-1.14965e-15 14.5725 0.0244377)
(-5.26605e-16 14.3683 0.0267086)
(1.63973e-16 14.1547 0.0291056)
(-2.2021e-16 13.932 0.0316421)
(-4.93312e-16 13.7003 0.0343426)
(-2.2109e-16 13.4594 0.0372154)
(-4.30071e-16 13.2096 0.0402761)
(-1.34917e-16 12.9506 0.0435547)
(8.1673e-17 12.6824 0.0470552)
(-3.69913e-16 12.4049 0.0508026)
(-3.57375e-16 12.1178 0.0548354)
(-1.6452e-16 11.8209 0.0591676)
(4.68073e-18 11.514 0.0638329)
(1.34818e-16 11.1966 0.0688674)
(9.05996e-17 10.8685 0.0743057)
(2.32633e-16 10.5291 0.0801841)
(4.95522e-16 10.178 0.086559)
(4.4291e-16 9.81461 0.0935069)
(1.86857e-16 9.43811 0.101066)
(1.38412e-16 9.04776 0.10932)
(2.048e-16 8.64258 0.118388)
(2.75752e-16 8.22146 0.128376)
(3.54723e-16 7.78307 0.139415)
(3.15292e-16 7.32584 0.151679)
(2.87943e-16 6.84788 0.165372)
(3.00822e-16 6.347 0.18073)
(2.65598e-16 5.82063 0.19802)
(2.08304e-16 5.2658 0.217481)
(1.54832e-16 4.67942 0.239258)
(1.11243e-16 4.05856 0.263241)
(8.81704e-17 3.40139 0.288907)
(6.47586e-17 2.70832 0.31546)
(3.60134e-17 1.98286 0.34315)
(1.37881e-17 1.22894 0.377484)
(-2.88753e-18 0.439729 0.439729)
(1.58166e-15 12.608 0.00222058)
(-1.58472e-15 12.5916 0.00659187)
(-3.52921e-15 12.5609 0.0108557)
(-1.48199e-15 12.5171 0.0150679)
(-1.15211e-15 12.4616 0.0192691)
(-1.22221e-15 12.3955 0.0235023)
(-7.49495e-16 12.3195 0.0278041)
(-4.09529e-16 12.2341 0.0322029)
(-7.04691e-16 12.1401 0.036736)
(-4.34467e-16 12.0377 0.0414385)
(-2.80915e-16 11.9274 0.0463363)
(-3.39289e-16 11.8095 0.0514666)
(-1.85483e-16 11.6841 0.0568613)
(-2.14259e-16 11.5513 0.0625474)
(-1.54725e-17 11.4114 0.0685733)
(2.16685e-16 11.2644 0.0749709)
(3.71769e-17 11.1103 0.0817761)
(-1.5585e-16 10.9491 0.0890413)
(-1.41514e-16 10.7808 0.0968074)
(-1.98017e-16 10.6053 0.10512)
(-9.10702e-17 10.4226 0.114038)
(-4.03499e-17 10.2325 0.123623)
(-1.82745e-16 10.0349 0.133937)
(-1.90011e-16 9.82958 0.145058)
(-1.11089e-16 9.61635 0.157063)
(-5.08061e-17 9.39494 0.170048)
(-4.81498e-18 9.16506 0.184123)
(2.33028e-17 8.92635 0.199394)
(7.88841e-17 8.6784 0.216002)
(1.49271e-16 8.4207 0.234113)
(1.31822e-16 8.15271 0.253909)
(8.87825e-17 7.87378 0.27562)
(8.45534e-17 7.58304 0.29951)
(8.54574e-17 7.27957 0.325872)
(1.28466e-16 6.96222 0.355093)
(1.44931e-16 6.62963 0.387653)
(1.36733e-16 6.28007 0.424114)
(1.40887e-16 5.91151 0.465153)
(1.50332e-16 5.52136 0.511578)
(1.38483e-16 5.10649 0.564344)
(1.11282e-16 4.66296 0.624405)
(9.22291e-17 4.18598 0.692519)
(7.29151e-17 3.66976 0.768766)
(5.36408e-17 3.10786 0.851772)
(3.77189e-17 2.49439 0.938202)
(2.49009e-17 1.82731 1.02456)
(7.78833e-18 1.11497 1.11497)
(1.65907e-18 0.377484 1.22894)
(8.43052e-15 8.68905 0.00297583)
(1.12845e-14 8.67957 0.00883713)
(3.80879e-15 8.6614 0.0145761)
(2.44835e-15 8.63573 0.0202519)
(1.98703e-15 8.60294 0.0259172)
(1.56135e-15 8.56377 0.0316354)
(1.33664e-15 8.51842 0.0375128)
(1.17684e-15 8.46734 0.0435324)
(1.09204e-15 8.41069 0.0497555)
(1.27874e-15 8.34887 0.0562622)
(1.39316e-15 8.28177 0.0630352)
(1.40924e-15 8.20964 0.0701687)
(1.28306e-15 8.1327 0.0776954)
(1.16219e-15 8.0507 0.0856596)
(1.07464e-15 7.96393 0.0941183)
(8.13699e-16 7.87244 0.10312)
(5.96841e-16 7.776 0.112715)
(4.55857e-16 7.67486 0.122973)
(3.40876e-16 7.56902 0.133959)
(3.71679e-16 7.45835 0.145736)
(3.62877e-16 7.34289 0.158385)
(2.75079e-16 7.22243 0.171994)
(3.14123e-16 7.09723 0.186646)
(2.73383e-16 6.96692 0.202455)
(2.12403e-16 6.83163 0.219545)
(1.41563e-16 6.69117 0.238042)
(7.77846e-17 6.54546 0.258104)
(1.16493e-16 6.3943 0.279918)
(8.36234e-17 6.23751 0.303686)
(-7.95466e-18 6.07484 0.329647)
(2.7906e-18 5.90599 0.358097)
(6.84192e-17 5.73057 0.389398)
(4.89814e-17 5.54813 0.423967)
(3.2486e-17 5.35809 0.462315)
(2.98125e-17 5.15967 0.505088)
(-4.51805e-18 4.95193 0.553088)
(1.29548e-17 4.73367 0.607321)
(1.71548e-17 4.50328 0.669064)
(1.19223e-17 4.25867 0.739948)
(1.52762e-17 3.99696 0.822002)
(5.96279e-18 3.71422 0.917716)
(1.28232e-17 3.40474 1.03)
(2.71395e-17 3.06011 1.16168)
(2.19677e-17 2.66762 1.31425)
(1.79491e-17 2.20869 1.48492)
(1.65228e-17 1.6617 1.6617)
(9.00164e-18 1.02456 1.82731)
(3.3832e-18 0.34315 1.98286)
(4.54018e-15 6.23128 0.0034889)
(7.1469e-15 6.2244 0.0104022)
(3.46586e-15 6.21151 0.0171554)
(2.01791e-15 6.19293 0.0238469)
(1.56719e-15 6.16936 0.030566)
(1.29483e-15 6.14097 0.0373795)
(1.02175e-15 6.10789 0.0443614)
(8.66079e-16 6.07086 0.0515522)
(8.43898e-16 6.02944 0.0589948)
(7.67542e-16 5.98428 0.0667762)
(7.36545e-16 5.93509 0.0749597)
(7.74773e-16 5.88211 0.0835262)
(6.90797e-16 5.82534 0.0926225)
(6.43928e-16 5.76495 0.10227)
(5.06451e-16 5.70107 0.112461)
(2.91376e-16 5.63343 0.123377)
(2.74347e-16 5.56237 0.135016)
(2.59508e-16 5.48772 0.147383)
(1.29321e-16 5.40964 0.16065)
(1.89293e-16 5.32817 0.174873)
(1.09454e-16 5.2434 0.190168)
(7.54985e-18 5.15544 0.206551)
(1.60015e-16 5.06403 0.224165)
(1.41384e-16 4.96962 0.243171)
(5.45725e-17 4.8719 0.263622)
(-2.18412e-17 4.77115 0.285727)
(-4.75963e-17 4.66725 0.309657)
(2.9869e-17 4.56045 0.335607)
(2.0836e-17 4.45052 0.363812)
(-8.08008e-17 4.33751 0.394568)
(-6.2853e-17 4.22148 0.428213)
(1.56377e-17 4.10232 0.46514)
(-1.38183e-18 3.97994 0.505851)
(-8.51109e-18 3.85418 0.550976)
(-2.21994e-18 3.72481 0.601288)
(-3.80748e-17 3.59148 0.657762)
(-4.3868e-17 3.45371 0.72168)
(-4.06988e-17 3.31079 0.79471)
(-2.41257e-17 3.16163 0.879067)
(-4.24064e-18 3.0046 0.977748)
(9.35949e-19 2.83702 1.09489)
(-5.70313e-19 2.65441 1.23634)
(-4.5161e-18 2.44892 1.41027)
(-1.24896e-18 2.20592 1.62775)
(4.14233e-18 1.89865 1.89865)
(1.96922e-17 1.48492 2.20869)
(1.73576e-17 0.938202 2.49439)
(2.90892e-18 0.31546 2.70833)
(2.32917e-15 4.85057 0.00394041)
(4.21194e-15 4.84484 0.0116911)
(2.5312e-15 4.83422 0.0193179)
(1.39174e-15 4.8187 0.0268874)
(1.02456e-15 4.79913 0.0344691)
(8.73992e-16 4.7755 0.042216)
(6.20813e-16 4.74824 0.0501308)
(5.2086e-16 4.71734 0.0583034)
(5.82145e-16 4.68295 0.0668062)
(4.34076e-16 4.64507 0.0757004)
(3.67982e-16 4.60397 0.085052)
(4.12832e-16 4.5598 0.0949091)
(3.63578e-16 4.51226 0.105322)
(3.69554e-16 4.46194 0.116313)
(2.14165e-16 4.4084 0.12806)
(3.76081e-17 4.35192 0.140561)
(1.23604e-16 4.29265 0.153864)
(1.89111e-16 4.23057 0.168093)
(6.71146e-17 4.1657 0.183263)
(1.06404e-16 4.09817 0.199476)
(1.88981e-17 4.02812 0.216795)
(-7.01513e-17 3.95583 0.235446)
(1.07199e-16 3.88102 0.255405)
(1.05608e-16 3.80414 0.276826)
(2.77754e-18 3.7251 0.299911)
(-7.61321e-17 3.64411 0.324728)
(-6.89816e-17 3.56119 0.351453)
(1.9129e-17 3.47663 0.380365)
(2.30187e-17 3.39031 0.41177)
(-6.96412e-17 3.30267 0.445792)
(-6.93577e-17 3.21353 0.48285)
(-1.90227e-17 3.12301 0.523412)
(-1.36696e-17 3.03137 0.567975)
(-3.74873e-18 2.93853 0.617187)
(-6.61477e-18 2.84454 0.671885)
(-4.3238e-17 2.74937 0.733127)
(-5.79388e-17 2.65288 0.802297)
(-5.4621e-17 2.55483 0.881279)
(-3.43295e-17 2.4547 0.972638)
(-1.23102e-17 2.35155 1.08005)
(-1.64543e-18 2.24366 1.20894)
(-1.68455e-17 2.12771 1.36773)
(-2.29308e-17 1.99725 1.57026)
(-4.3677e-18 1.83933 1.83933)
(2.65677e-18 1.62775 2.20592)
(1.55424e-17 1.31425 2.66762)
(1.49749e-17 0.851771 3.10787)
(3.2213e-17 0.288906 3.40139)
(1.22306e-15 3.97653 0.00433034)
(2.50988e-15 3.97159 0.0128754)
(1.7728e-15 3.96197 0.0212803)
(9.37991e-16 3.94861 0.0296297)
(6.32077e-16 3.93138 0.0380099)
(5.7008e-16 3.91068 0.0465483)
(3.64103e-16 3.88664 0.0553214)
(2.81946e-16 3.85939 0.064421)
(4.15526e-16 3.82907 0.0738971)
(2.72986e-16 3.7958 0.0838107)
(1.84031e-16 3.7596 0.0941975)
(2.25425e-16 3.7206 0.10517)
(1.98561e-16 3.67893 0.116779)
(2.35298e-16 3.63458 0.129095)
(8.41816e-17 3.58743 0.142183)
(-5.45583e-17 3.538 0.156088)
(5.8417e-17 3.48617 0.17089)
(1.5847e-16 3.43193 0.18664)
(7.40972e-17 3.37568 0.20348)
(8.9234e-17 3.31717 0.221429)
(2.17616e-18 3.2569 0.240552)
(-6.30153e-17 3.19464 0.261022)
(8.20307e-17 3.1309 0.282922)
(8.97069e-17 3.06542 0.306345)
(7.61436e-18 2.99886 0.331445)
(-5.87762e-17 2.93096 0.358398)
(-4.24692e-17 2.86212 0.387325)
(2.45336e-17 2.79233 0.418502)
(3.71153e-17 2.72187 0.452082)
(-4.81582e-17 2.65102 0.488398)
(-6.656e-17 2.57964 0.527956)
(-2.15851e-17 2.50811 0.570921)
(-1.62949e-17 2.43654 0.617908)
(-2.51553e-18 2.36498 0.66968)
(-2.60574e-18 2.29349 0.726996)
(-2.8233e-17 2.22222 0.790986)
(-3.82325e-17 2.15107 0.863123)
(-4.64259e-17 2.07988 0.945426)
(-3.51353e-17 2.00826 1.04078)
(-1.98841e-17 1.93538 1.15338)
(-1.14176e-17 1.85972 1.28982)
(-8.85879e-18 1.77831 1.46093)
(-5.28798e-18 1.68551 1.68551)
(-3.44648e-18 1.57025 1.99725)
(3.56409e-18 1.41027 2.44892)
(1.96424e-17 1.16168 3.06011)
(1.32603e-17 0.768766 3.66976)
(3.97471e-17 0.263241 4.05856)
(7.12612e-16 3.36826 0.00469975)
(1.6054e-15 3.36367 0.0139963)
(1.28155e-15 3.35511 0.0231098)
(6.67493e-16 3.34286 0.0321646)
(4.09044e-16 3.32729 0.0413103)
(3.91077e-16 3.30853 0.0506549)
(2.30137e-16 3.28657 0.0602478)
(1.50325e-16 3.26181 0.0701802)
(3.19345e-16 3.23436 0.080526)
(2.16178e-16 3.20411 0.0913787)
(9.24223e-17 3.17131 0.102808)
(1.22991e-16 3.13594 0.114835)
(1.12093e-16 3.09816 0.127547)
(1.60009e-16 3.05795 0.141044)
(4.53365e-17 3.01569 0.155363)
(-8.48576e-17 2.97113 0.170506)
(1.60897e-17 2.92467 0.186678)
(1.53181e-16 2.87627 0.203845)
(9.61289e-17 2.82622 0.222114)
(8.31818e-17 2.77451 0.241534)
(1.52712e-17 2.72139 0.262181)
(-4.27585e-17 2.66698 0.284268)
(6.52939e-17 2.61142 0.307781)
(9.47569e-17 2.55497 0.332802)
(2.5659e-17 2.49774 0.35954)
(-2.12289e-17 2.43999 0.388158)
(1.96149e-18 2.38186 0.418717)
(3.44107e-17 2.32347 0.451545)
(4.56772e-17 2.26507 0.486792)
(-3.49103e-17 2.20679 0.524783)
(-6.685e-17 2.14889 0.565861)
(-1.54425e-17 2.09149 0.610349)
(-1.09076e-18 2.03458 0.658933)
(1.52986e-18 1.97852 0.712278)
(-6.14653e-19 1.92316 0.771148)
(-1.38016e-17 1.86857 0.836709)
(-1.64421e-17 1.81471 0.910581)
(-3.33152e-17 1.76131 0.994928)
(-2.89854e-17 1.70788 1.09295)
(-2.47677e-17 1.65351 1.20945)
(-1.37522e-17 1.59653 1.35216)
(-3.24567e-18 1.53405 1.53405)
(-7.8644e-18 1.46093 1.77831)
(-1.38804e-17 1.36773 2.12771)
(-2.3439e-19 1.23634 2.65441)
(3.09716e-17 1.03 3.40474)
(1.28741e-17 0.692519 4.18599)
(-4.89921e-18 0.239259 4.67942)
(4.92738e-16 2.91676 0.00506917)
(1.14203e-15 2.91249 0.0150527)
(9.83129e-16 2.90456 0.024875)
(5.26836e-16 2.89321 0.0346526)
(3.05245e-16 2.87869 0.04449)
(2.9761e-16 2.86125 0.0545849)
(1.69747e-16 2.841 0.0649636)
(8.93944e-17 2.81806 0.075691)
(2.73221e-16 2.79257 0.0869259)
(2.10955e-16 2.76451 0.0987044)
(4.84878e-17 2.73425 0.111039)
(5.87947e-17 2.70156 0.124073)
(5.69075e-17 2.66679 0.137865)
(1.0914e-16 2.62994 0.152415)
(4.48757e-17 2.59126 0.167864)
(-7.18322e-17 2.55063 0.184254)
(-3.51209e-18 2.50828 0.201595)
(1.43498e-16 2.4646 0.21997)
(1.09946e-16 2.41944 0.239524)
(8.30438e-17 2.37331 0.260268)
(4.09161e-17 2.32595 0.282222)
(-1.42325e-17 2.27785 0.305597)
(5.14081e-17 2.22914 0.330417)
(9.35677e-17 2.17995 0.356767)
(4.56439e-17 2.13049 0.384784)
(7.71231e-18 2.08104 0.414631)
(2.66189e-17 2.03158 0.446475)
(4.2993e-17 1.98248 0.480515)
(4.55707e-17 1.93386 0.516884)
(-2.36786e-17 1.88573 0.55589)
(-5.90876e-17 1.83857 0.598017)
(-1.30092e-17 1.79214 0.643581)
(5.85776e-18 1.74667 0.693014)
(1.25814e-17 1.70231 0.747161)
(1.40535e-17 1.659 0.806971)
(2.76632e-18 1.61661 0.873504)
(-3.01369e-18 1.57497 0.948496)
(-2.35045e-17 1.53384 1.03439)
(-2.22326e-17 1.49242 1.13472)
(-2.398e-17 1.44969 1.25494)
(-2.63761e-17 1.40389 1.40389)
(-2.62868e-17 1.35216 1.59653)
(-3.58981e-17 1.28982 1.85972)
(-3.98877e-17 1.20893 2.24366)
(-1.97419e-17 1.09489 2.83702)
(2.99942e-17 0.917716 3.71422)
(1.32165e-17 0.624405 4.66296)
(1.5335e-17 0.217481 5.2658)
(4.07315e-16 2.5661 0.00541806)
(9.16218e-16 2.56214 0.0161101)
(8.01322e-16 2.55467 0.0265942)
(4.57239e-16 2.54406 0.0370496)
(2.71727e-16 2.53031 0.0476217)
(2.50824e-16 2.51375 0.0584389)
(1.38672e-16 2.49475 0.0695742)
(7.82778e-17 2.47306 0.0811199)
(2.58728e-16 2.44904 0.0931798)
(2.1024e-16 2.42281 0.105789)
(1.94952e-17 2.39447 0.119082)
(1.67478e-17 2.36392 0.133078)
(3.20708e-17 2.33162 0.147804)
(8.29632e-17 2.29745 0.163389)
(5.85286e-17 2.26153 0.17991)
(-4.69163e-17 2.22421 0.197369)
(-1.73958e-17 2.1856 0.21581)
(1.26412e-16 2.14582 0.235316)
(1.12562e-16 2.10488 0.255937)
(8.91161e-17 2.06335 0.277771)
(6.88782e-17 2.02111 0.300878)
(2.92673e-17 1.97841 0.325318)
(4.49633e-17 1.93547 0.351212)
(8.15455e-17 1.89252 0.378574)
(5.57812e-17 1.8498 0.40754)
(2.52825e-17 1.80731 0.438373)
(4.18855e-17 1.76528 0.471051)
(4.20122e-17 1.72396 0.505817)
(3.75542e-17 1.68344 0.543001)
(-7.90071e-18 1.64373 0.582687)
(-3.91985e-17 1.60508 0.625353)
(-5.38634e-18 1.56758 0.671446)
(1.98491e-17 1.53126 0.721401)
(3.01829e-17 1.49586 0.776055)
(2.64098e-17 1.46163 0.836364)
(1.24327e-17 1.42833 0.903614)
(-3.81547e-18 1.39557 0.979518)
(-1.49482e-17 1.36277 1.06687)
(-1.81799e-17 1.32937 1.16972)
(-3.31916e-17 1.29401 1.29401)
(-3.54675e-17 1.25494 1.44969)
(-2.95613e-17 1.20945 1.65351)
(-3.91354e-17 1.15336 1.93539)
(-4.26301e-17 1.08005 2.35155)
(-2.24774e-17 0.977747 3.00458)
(2.98522e-17 0.822002 3.99696)
(1.6402e-17 0.564344 5.10649)
(6.07107e-17 0.19802 5.82063)
(3.75592e-16 2.28457 0.00576695)
(8.00366e-16 2.28078 0.0171246)
(6.87329e-16 2.27365 0.028293)
(4.29867e-16 2.2634 0.0394692)
(2.6838e-16 2.25036 0.0507533)
(2.2409e-16 2.23453 0.0622671)
(1.26744e-16 2.21637 0.0741591)
(8.8891e-17 2.19586 0.0864925)
(2.42031e-16 2.17312 0.0993481)
(1.94291e-16 2.14827 0.112814)
(1.32663e-17 2.1213 0.126966)
(-2.96817e-18 2.09277 0.141853)
(2.45544e-17 2.06234 0.157536)
(7.61075e-17 2.03046 0.17411)
(6.6774e-17 1.99713 0.191577)
(-2.64369e-17 1.96268 0.209969)
(-2.14088e-17 1.92712 0.229362)
(1.03649e-16 1.89088 0.249883)
(1.07031e-16 1.85375 0.27149)
(9.7303e-17 1.81628 0.294231)
(9.5497e-17 1.77847 0.318245)
(6.66641e-17 1.74066 0.34359)
(4.65819e-17 1.70295 0.37027)
(6.81225e-17 1.66558 0.398343)
(5.16018e-17 1.62854 0.428041)
(2.77264e-17 1.59217 0.459509)
(4.7996e-17 1.55657 0.492773)
(4.48029e-17 1.52186 0.528065)
(3.61777e-17 1.48815 0.565635)
(9.76505e-18 1.45544 0.605699)
(-1.14428e-17 1.42385 0.648647)
(8.08975e-18 1.39359 0.694922)
(3.22481e-17 1.36434 0.745198)
(3.67114e-17 1.33608 0.800148)
(2.95833e-17 1.30873 0.860732)
(1.98541e-17 1.28205 0.928527)
(-3.37793e-18 1.25559 1.00565)
(-2.03181e-17 1.22862 1.09479)
(-2.56905e-17 1.20039 1.20039)
(-3.17787e-17 1.16972 1.32937)
(-3.23194e-17 1.13472 1.49242)
(-2.05558e-17 1.09295 1.7079)
(-2.04818e-17 1.04078 2.00826)
(-1.2084e-17 0.972649 2.45469)
(1.70492e-17 0.879067 3.16163)
(4.85772e-17 0.739937 4.25867)
(2.01721e-17 0.511578 5.52137)
(3.15756e-17 0.18073 6.34701)
(3.59609e-16 2.05259 0.00611584)
(7.22824e-16 2.04897 0.018182)
(6.11916e-16 2.04194 0.0300347)
(4.22561e-16 2.03204 0.0418652)
(2.71163e-16 2.01957 0.0538614)
(2.07018e-16 2.00445 0.0661211)
(1.33714e-16 1.98687 0.0787159)
(9.93136e-17 1.96728 0.0918113)
(2.11955e-16 1.94555 0.105487)
(1.77097e-16 1.92179 0.119809)
(1.36566e-17 1.89633 0.134785)
(-1.95848e-17 1.86927 0.15053)
(2.39691e-17 1.84061 0.167092)
(7.87318e-17 1.81077 0.184506)
(6.55482e-17 1.77987 0.202866)
(-1.72225e-17 1.74791 0.222174)
(-1.65444e-17 1.71529 0.242417)
(8.39416e-17 1.68204 0.263758)
(9.26387e-17 1.64857 0.286184)
(9.84089e-17 1.61478 0.309697)
(1.15932e-16 1.58108 0.334422)
(8.62306e-17 1.54761 0.360358)
(4.1592e-17 1.51466 0.38765)
(5.45937e-17 1.48213 0.416353)
(5.39091e-17 1.45014 0.446525)
(3.96417e-17 1.4191 0.47835)
(5.03029e-17 1.38912 0.511898)
(4.40793e-17 1.36 0.547394)
(3.01873e-17 1.33204 0.585219)
(2.34829e-17 1.30525 0.625441)
(1.68901e-17 1.27954 0.668367)
(3.22766e-17 1.25499 0.714743)
(4.46508e-17 1.2314 0.765167)
(4.09078e-17 1.20867 0.82033)
(3.13755e-17 1.18658 0.881384)
(6.92804e-18 1.1646 0.949941)
(-1.59955e-17 1.14252 1.02826)
(-3.16904e-17 1.1196 1.1196)
(-3.68519e-17 1.09479 1.22862)
(-2.81894e-17 1.06687 1.36277)
(-1.92362e-17 1.03439 1.53384)
(-8.65971e-18 0.994928 1.76131)
(-3.87284e-18 0.945436 2.07988)
(3.75762e-18 0.881279 2.55483)
(4.21185e-17 0.79471 3.3108)
(7.97597e-17 0.669063 4.50328)
(4.22838e-17 0.465153 5.91149)
(-3.57083e-18 0.165372 6.84788)
(3.38143e-16 1.85748 0.00646473)
(6.56786e-16 1.85392 0.0192394)
(5.59501e-16 1.8472 0.0317989)
(4.13711e-16 1.83763 0.0443072)
(2.67941e-16 1.82531 0.056993)
(2.00077e-16 1.81075 0.0700008)
(1.40095e-16 1.79385 0.0833523)
(1.08651e-16 1.77491 0.0971839)
(1.82346e-16 1.75394 0.111655)
(1.53239e-16 1.73133 0.126741)
(1.75544e-17 1.7072 0.142512)
(-2.88423e-17 1.68143 0.159105)
(1.75979e-17 1.65455 0.176478)
(7.99081e-17 1.62654 0.194683)
(6.71208e-17 1.59771 0.213854)
(-1.40055e-17 1.56827 0.233902)
(-4.69399e-18 1.53832 0.254896)
(7.59703e-17 1.50796 0.276937)
(8.01178e-17 1.4778 0.300019)
(9.10911e-17 1.44753 0.324167)
(1.14717e-16 1.41757 0.349412)
(8.30846e-17 1.38812 0.37583)
(4.39418e-17 1.35927 0.403511)
(6.22032e-17 1.33113 0.432607)
(6.31547e-17 1.30391 0.463052)
(5.2155e-17 1.2775 0.494956)
(5.36102e-17 1.25231 0.528691)
(4.67178e-17 1.22804 0.564347)
(3.62603e-17 1.20498 0.602029)
(3.92299e-17 1.18306 0.642215)
(4.50504e-17 1.16214 0.685215)
(4.00649e-17 1.14205 0.731556)
(3.64575e-17 1.12297 0.782079)
(3.33621e-17 1.10441 0.837489)
(1.88064e-17 1.08616 0.899157)
(-4.40113e-18 1.0677 0.968729)
(-1.48509e-17 1.04864 1.04864)
(-2.43534e-17 1.02826 1.14252)
(-2.31858e-17 1.00565 1.25559)
(-1.75422e-17 0.979517 1.39557)
(-1.30318e-17 0.948496 1.57497)
(-5.46242e-18 0.91058 1.81471)
(2.73911e-18 0.863122 2.15107)
(1.12291e-17 0.802297 2.65288)
(3.86072e-17 0.72168 3.45372)
(7.43692e-17 0.607331 4.73367)
(4.30668e-17 0.424114 6.28007)
(6.88299e-17 0.151679 7.32584)
(3.12006e-16 1.69062 0.00683414)
(6.00776e-16 1.68712 0.0203173)
(5.1517e-16 1.6806 0.033563)
(3.95311e-16 1.67126 0.0468196)
(2.57681e-16 1.65929 0.0602197)
(1.94957e-16 1.64508 0.0739051)
(1.40797e-16 1.62873 0.0879886)
(1.13915e-16 1.61044 0.102613)
(1.5987e-16 1.59029 0.117821)
(1.34767e-16 1.56868 0.133645)
(1.96034e-17 1.54552 0.150237)
(-3.58952e-17 1.52127 0.167581)
(5.5854e-18 1.49596 0.18569)
(7.66522e-17 1.46977 0.204644)
(6.21162e-17 1.4429 0.224461)
(-1.12473e-17 1.41583 0.245199)
(9.02774e-18 1.38836 0.266875)
(7.28814e-17 1.3609 0.289424)
(6.77497e-17 1.33363 0.312993)
(8.0238e-17 1.30674 0.337645)
(1.0261e-16 1.28024 0.363261)
(7.32715e-17 1.25442 0.389957)
(5.8074e-17 1.22938 0.417909)
(7.65895e-17 1.20521 0.447101)
(7.58261e-17 1.18211 0.477685)
(5.97209e-17 1.15988 0.509702)
(6.10707e-17 1.13873 0.543339)
(4.87493e-17 1.11874 0.578857)
(3.75287e-17 1.09973 0.616503)
(4.22956e-17 1.08179 0.656611)
(4.95064e-17 1.06472 0.699581)
(3.67188e-17 1.04834 0.745931)
(2.76642e-17 1.03255 0.796528)
(2.14656e-17 1.01715 0.852431)
(1.03607e-17 1.00165 0.914883)
(3.52274e-19 0.985774 0.985774)
(-6.4129e-18 0.968729 1.0677)
(-2.55828e-17 0.949941 1.1646)
(-3.03661e-17 0.928527 1.28205)
(-2.6647e-17 0.903614 1.42833)
(-2.73501e-17 0.873504 1.61661)
(-2.48358e-17 0.836709 1.86857)
(-2.85914e-17 0.790986 2.22222)
(-2.44666e-17 0.733127 2.74937)
(-1.71431e-17 0.657762 3.59148)
(3.83178e-17 0.553088 4.95193)
(4.95125e-17 0.387653 6.62963)
(1.93341e-16 0.139415 7.78308)
(2.78791e-16 1.54588 0.00720355)
(5.45045e-16 1.54253 0.0214167)
(4.77978e-16 1.53612 0.0353936)
(3.62399e-16 1.52691 0.0493535)
(2.30883e-16 1.51528 0.063472)
(1.94317e-16 1.50142 0.0779099)
(1.47339e-16 1.4856 0.0927302)
(1.15294e-16 1.46784 0.108067)
(1.3716e-16 1.44858 0.124017)
(1.18449e-16 1.42783 0.140608)
(2.17471e-17 1.40577 0.157866)
(-3.16073e-17 1.38289 0.175893)
(-1.33856e-18 1.35906 0.194728)
(6.21892e-17 1.33468 0.214351)
(4.46186e-17 1.30982 0.234765)
(3.79235e-19 1.28488 0.256017)
(2.1124e-17 1.25993 0.278193)
(7.0006e-17 1.23516 0.301221)
(5.55409e-17 1.21067 0.32515)
(6.50626e-17 1.18683 0.35008)
(8.58898e-17 1.16364 0.375973)
(7.10239e-17 1.14119 0.402839)
(7.74858e-17 1.11958 0.430845)
(8.70088e-17 1.09899 0.460066)
(7.21029e-17 1.07933 0.490596)
(6.58302e-17 1.06088 0.522528)
(6.87734e-17 1.04327 0.556042)
(4.92168e-17 1.02677 0.591471)
(3.44267e-17 1.01121 0.628913)
(4.40296e-17 0.996484 0.668857)
(4.78958e-17 0.982502 0.711847)
(3.19066e-17 0.968992 0.758362)
(1.75754e-17 0.955759 0.809276)
(1.33529e-17 0.942626 0.865685)
(2.6588e-18 0.929124 0.929124)
(-3.36408e-18 0.914883 1.00165)
(-1.63998e-17 0.899156 1.08616)
(-3.39736e-17 0.881383 1.18658)
(-2.96868e-17 0.860732 1.30873)
(-3.11205e-17 0.836364 1.46163)
(-3.78807e-17 0.806971 1.659)
(-4.82457e-17 0.771148 1.92316)
(-6.05519e-17 0.726996 2.29349)
(-6.21998e-17 0.671885 2.84454)
(-3.52068e-17 0.601288 3.72481)
(5.92524e-17 0.505088 5.15967)
(7.93334e-17 0.355093 6.96222)
(1.78369e-16 0.128376 8.22147)
(2.44283e-16 1.419 0.00757297)
(4.93494e-16 1.41562 0.0225375)
(4.44979e-16 1.40931 0.0372681)
(3.23743e-16 1.40033 0.0519804)
(1.93984e-16 1.38895 0.0668195)
(1.91376e-16 1.37543 0.0819394)
(1.50763e-16 1.36014 0.0974986)
(1.12342e-16 1.34297 0.113577)
(1.17543e-16 1.32439 0.130212)
(9.58149e-17 1.30464 0.14751)
(2.83296e-17 1.28374 0.165464)
(-1.49464e-17 1.26204 0.184138)
(-9.63678e-18 1.23979 0.203559)
(3.70164e-17 1.21711 0.223733)
(3.19624e-17 1.19433 0.244654)
(1.27056e-17 1.17146 0.266362)
(2.77311e-17 1.14886 0.288931)
(6.64139e-17 1.12669 0.312281)
(3.87559e-17 1.10497 0.336448)
(5.06654e-17 1.08396 0.36152)
(6.82321e-17 1.06375 0.387495)
(7.60233e-17 1.04443 0.414428)
(9.01914e-17 1.02591 0.442425)
(9.21585e-17 1.00845 0.471559)
(6.70954e-17 0.991971 0.501905)
(6.88873e-17 0.976563 0.533681)
(7.722e-17 0.96204 0.567059)
(5.7893e-17 0.94841 0.602182)
(3.09481e-17 0.935674 0.639556)
(3.71149e-17 0.923554 0.679467)
(3.95198e-17 0.911976 0.722487)
(2.9198e-17 0.900663 0.769248)
(2.13802e-17 0.889445 0.820585)
(1.15411e-17 0.877875 0.877875)
(3.46303e-18 0.865685 0.942626)
(-2.61697e-18 0.852344 1.01715)
(-1.55259e-17 0.837402 1.10441)
(-1.26588e-17 0.82033 1.20867)
(-2.02278e-18 0.800147 1.33608)
(-1.04087e-17 0.776055 1.49586)
(-3.03696e-17 0.747161 1.70231)
(-5.73115e-17 0.712278 1.97852)
(-8.31843e-17 0.66968 2.36498)
(-8.57589e-17 0.617187 2.93853)
(-5.25908e-17 0.550976 3.85418)
(2.82448e-17 0.462315 5.35809)
(9.69109e-17 0.325872 7.27957)
(2.19805e-16 0.118388 8.64258)
(2.19789e-16 1.30661 0.00798343)
(4.26219e-16 1.3033 0.0237209)
(3.99904e-16 1.29701 0.0391865)
(2.86328e-16 1.28825 0.0546297)
(1.72316e-16 1.27721 0.0702161)
(1.80428e-16 1.26403 0.0860694)
(1.47432e-16 1.24907 0.102345)
(1.00717e-16 1.23258 0.119142)
(9.23962e-17 1.21481 0.136435)
(8.28375e-17 1.19585 0.154382)
(3.83436e-17 1.17621 0.172967)
(-1.97438e-18 1.1558 0.192183)
(-1.16491e-17 1.13505 0.212148)
(3.71035e-18 1.11413 0.232788)
(1.98833e-17 1.09329 0.254129)
(2.12154e-17 1.07253 0.276192)
(3.67548e-17 1.0522 0.298966)
(6.0157e-17 1.03246 0.32252)
(2.72794e-17 1.01332 0.346842)
(4.26551e-17 0.994933 0.371967)
(6.15039e-17 0.977484 0.397929)
(8.19197e-17 0.960885 0.424826)
(9.49815e-17 0.945219 0.452705)
(9.59907e-17 0.930573 0.481634)
(7.52293e-17 0.916865 0.511795)
(6.9401e-17 0.90409 0.543344)
(7.26117e-17 0.892168 0.576522)
(6.23592e-17 0.880927 0.611538)
(3.68023e-17 0.870366 0.648704)
(3.51975e-17 0.860323 0.688599)
(3.98706e-17 0.850533 0.731806)
(3.31739e-17 0.841 0.778921)
(2.49529e-17 0.831047 0.831047)
(1.68939e-17 0.820585 0.889445)
(1.59035e-17 0.809276 0.955855)
(7.74084e-18 0.796524 1.03265)
(6.25417e-18 0.782075 1.12287)
(9.94624e-18 0.765083 1.2313)
(1.35602e-17 0.745198 1.36434)
(4.79447e-18 0.721401 1.53126)
(-2.36421e-17 0.693014 1.74667)
(-5.49698e-17 0.658933 2.03458)
(-7.03126e-17 0.617908 2.43655)
(-7.10165e-17 0.567967 3.03137)
(-4.26921e-17 0.50585 3.97994)
(6.49574e-19 0.423959 5.54813)
(7.65936e-17 0.29951 7.58304)
(1.75304e-16 0.10932 9.04776)
(2.17921e-16 1.2061 0.00837336)
(3.89535e-16 1.20294 0.0249267)
(3.55297e-16 1.19676 0.0411703)
(2.53671e-16 1.18815 0.0573485)
(1.49992e-16 1.17726 0.0736842)
(1.62598e-16 1.16451 0.0902755)
(1.42647e-16 1.15004 0.107244)
(8.36148e-17 1.1342 0.124678)
(7.37976e-17 1.11721 0.14266)
(7.11632e-17 1.09925 0.161191)
(4.37775e-17 1.0808 0.180312)
(2.37369e-17 1.0617 0.200096)
(-1.06061e-17 1.04251 0.220459)
(-3.00691e-17 1.02332 0.241447)
(1.1795e-17 1.0043 0.26311)
(2.69865e-17 0.985673 0.285429)
(4.50256e-17 0.967534 0.30838)
(6.05144e-17 0.950046 0.332023)
(2.49475e-17 0.933287 0.356375)
(3.61257e-17 0.91742 0.381419)
(5.99069e-17 0.902449 0.407274)
(8.84594e-17 0.888291 0.434032)
(9.81419e-17 0.875187 0.461686)
(9.53507e-17 0.862979 0.490408)
(7.75636e-17 0.851663 0.52032)
(6.66899e-17 0.841084 0.551645)
(7.75969e-17 0.831234 0.584688)
(6.89016e-17 0.822035 0.619538)
(4.85645e-17 0.813327 0.656723)
(4.91824e-17 0.804781 0.696764)
(3.92452e-17 0.796402 0.740116)
(2.61984e-17 0.787867 0.787867)
(2.06742e-17 0.77892 0.841)
(1.3065e-17 0.769248 0.900663)
(1.19123e-17 0.758362 0.968993)
(1.71586e-17 0.746014 1.04834)
(2.07938e-17 0.731639 1.14215)
(1.30116e-17 0.71474 1.25499)
(9.27531e-18 0.694922 1.39348)
(-2.37413e-18 0.671446 1.56758)
(-1.97815e-17 0.643581 1.79214)
(-2.84152e-17 0.610349 2.09149)
(-2.4997e-17 0.570921 2.50812)
(-1.90937e-17 0.523403 3.12301)
(-1.42509e-18 0.465132 4.10232)
(4.31223e-19 0.389398 5.73057)
(6.90579e-17 0.27562 7.87377)
(6.28621e-17 0.101066 9.43811)
(2.21389e-16 1.11566 0.00878382)
(3.91472e-16 1.11247 0.026153)
(3.20191e-16 1.10649 0.043199)
(2.26693e-16 1.09803 0.0601592)
(1.27403e-16 1.08746 0.077224)
(1.44206e-16 1.07511 0.0945061)
(1.30771e-16 1.06121 0.112169)
(7.05321e-17 1.04599 0.13027)
(6.8158e-17 1.02983 0.148824)
(5.53963e-17 1.01297 0.167881)
(4.82843e-17 0.995563 0.187531)
(4.79133e-17 0.977921 0.20771)
(-1.71356e-17 0.960282 0.228426)
(-5.48632e-17 0.942792 0.249744)
(4.89912e-18 0.925613 0.2716)
(3.62316e-17 0.908975 0.294033)
(5.18597e-17 0.892959 0.317051)
(5.50957e-17 0.87764 0.340704)
(1.27172e-17 0.863174 0.364959)
(2.4688e-17 0.849564 0.389879)
(5.86306e-17 0.836807 0.41563)
(9.21456e-17 0.824903 0.44215)
(1.021e-16 0.81401 0.469532)
(9.7912e-17 0.803818 0.497991)
(7.7504e-17 0.794482 0.527723)
(6.54417e-17 0.785765 0.558892)
(7.80053e-17 0.777672 0.591686)
(7.50478e-17 0.770049 0.626456)
(6.29369e-17 0.76266 0.663749)
(4.73598e-17 0.755351 0.70404)
(2.46658e-17 0.747967 0.747967)
(1.29503e-17 0.740116 0.796402)
(8.8316e-18 0.731806 0.850533)
(4.24372e-18 0.722487 0.911977)
(5.0806e-18 0.711847 0.982503)
(2.31504e-17 0.69958 1.06473)
(2.77898e-17 0.685215 1.16214)
(2.04516e-17 0.668446 1.27954)
(7.48354e-18 0.648647 1.42385)
(5.46017e-18 0.625353 1.60508)
(-2.75061e-18 0.598017 1.83857)
(-9.37933e-18 0.565861 2.14889)
(-1.81447e-17 0.527956 2.57965)
(-2.38609e-17 0.482857 3.21354)
(-4.68621e-17 0.428205 4.22147)
(-1.11137e-16 0.358105 5.90598)
(7.20145e-17 0.253909 8.15271)
(1.93444e-16 0.0935069 9.81461)
(2.06078e-16 1.03374 0.0092148)
(3.76868e-16 1.03055 0.0274213)
(2.9395e-16 1.02469 0.0452717)
(2.01974e-16 1.01645 0.0629923)
(1.04082e-16 1.00628 0.0807883)
(1.2822e-16 0.994324 0.098787)
(1.21238e-16 0.980958 0.11712)
(6.10648e-17 0.966549 0.135805)
(6.72525e-17 0.951253 0.154903)
(4.36568e-17 0.935432 0.17448)
(4.5643e-17 0.919238 0.194526)
(7.13749e-17 0.903044 0.215063)
(-2.05385e-17 0.886847 0.236045)
(-7.54113e-17 0.871095 0.257535)
(4.53623e-18 0.855712 0.279522)
(3.80528e-17 0.840997 0.302006)
(5.39942e-17 0.826948 0.325018)
(4.90365e-17 0.813641 0.348563)
(4.59768e-18 0.801298 0.372684)
(1.28457e-17 0.789625 0.39744)
(6.72749e-17 0.778916 0.422946)
(9.68114e-17 0.769098 0.449182)
(1.03606e-16 0.759953 0.476349)
(9.49812e-17 0.75162 0.504612)
(7.67834e-17 0.743884 0.534057)
(7.0707e-17 0.736746 0.565025)
(7.28087e-17 0.730053 0.59778)
(6.442e-17 0.723584 0.632628)
(4.92407e-17 0.717192 0.670137)
(3.23302e-17 0.710799 0.710799)
(1.17805e-17 0.70404 0.755352)
(-2.50601e-18 0.696763 0.804781)
(-5.77594e-18 0.688599 0.860323)
(9.27702e-18 0.679467 0.923554)
(2.45367e-17 0.668857 0.996484)
(3.82057e-17 0.656611 1.08179)
(4.54826e-17 0.642215 1.18306)
(3.79046e-17 0.625441 1.30525)
(3.43523e-17 0.605699 1.45544)
(3.3844e-17 0.582687 1.64373)
(2.80363e-17 0.55589 1.88573)
(2.96456e-17 0.524783 2.20679)
(2.72786e-17 0.488398 2.65102)
(2.7707e-17 0.4458 3.30268)
(-1.33177e-17 0.394575 4.33751)
(-1.21246e-16 0.329647 6.07483)
(1.59295e-17 0.234113 8.4207)
(-1.43502e-17 0.086559 10.178)
(1.81723e-16 0.959026 0.00966631)
(3.38702e-16 0.955903 0.0287316)
(2.52425e-16 0.950224 0.0473883)
(1.78429e-16 0.942275 0.0658714)
(8.94774e-17 0.93241 0.0844007)
(1.16006e-16 0.920912 0.103093)
(1.1159e-16 0.908205 0.122017)
(5.15984e-17 0.894577 0.141286)
(6.64325e-17 0.880164 0.160893)
(3.21503e-17 0.865466 0.180867)
(3.29311e-17 0.850554 0.20127)
(8.38643e-17 0.835712 0.222084)
(-1.53183e-17 0.82115 0.243251)
(-6.59623e-17 0.807014 0.264857)
(1.18318e-17 0.793443 0.286878)
(2.18821e-17 0.780443 0.309306)
(4.26124e-17 0.768291 0.332242)
(4.64002e-17 0.756918 0.3556)