/*--------------------------------*- C++ -*----------------------------------*\
| =========                 |                                                 |
| \\      /  F ield         | OpenFOAM: The Open Source CFD Toolbox           |
|  \\    /   O peration     | Version:  2212                                  |
|   \\  /    A nd           | Website:  www.openfoam.com                      |
|    \\/     M anipulation  |                                                 |
\*---------------------------------------------------------------------------*/
FoamFile
{
    version     2.0;
    format      ascii;
    arch        "LSB;label=32;scalar=64";
    class       volScalarField;
    location    "1880";
    object      k;
}
// * * * * * * * * * * * * * * * * * * * * * * * * * * * * * * * * * * * * * //

dimensions      [0 2 -2 0 0 0 0];

internalField   nonuniform List<scalar> 
15600
(
1.16799298e-05
1.39840482e-05
6.09647163e-06
2.91802083e-07
2.75366806e-06
2.64467357e-06
1.46485479e-06
1.01327666e-06
6.97246614e-07
4.99701557e-07
3.54830992e-07
2.8246579e-07
2.44285665e-07
2.36895495e-07
2.58672158e-07
3.0854391e-07
3.76806809e-07
4.50451501e-07
5.19192896e-07
5.63089731e-07
5.6518724e-07
5.32983466e-07
4.87064296e-07
4.32109222e-07
3.77488844e-07
3.49979855e-07
3.17886264e-07
4.62765727e-07
1.12094761e-06
2.18333123e-06
3.4706886e-06
4.99458742e-06
6.61112517e-06
8.2582335e-06
9.86684157e-06
1.1402771e-05
1.28419734e-05
1.41738386e-05
1.53928443e-05
1.64974333e-05
1.74872681e-05
1.83627599e-05
1.91246515e-05
1.97741633e-05
2.03129136e-05
2.07430158e-05
2.10671221e-05
2.12887705e-05
2.14116337e-05
2.14393821e-05
2.13768985e-05
2.12296218e-05
2.10033803e-05
2.07043486e-05
2.03389755e-05
1.99139072e-05
1.94358858e-05
1.89116723e-05
1.8347957e-05
1.77512783e-05
1.71279598e-05
1.64840462e-05
1.58252486e-05
1.51569093e-05
1.44839549e-05
1.38108803e-05
1.31417169e-05
1.2480033e-05
1.18289507e-05
1.11911992e-05
1.05691993e-05
9.96513297e-06
9.38089294e-06
8.81802741e-06
8.2777087e-06
7.76071838e-06
7.26747961e-06
6.79811112e-06
6.3524917e-06
5.93039613e-06
5.53152642e-06
5.15557971e-06
4.80212268e-06
4.47085244e-06
4.1611192e-06
3.87292415e-06
3.60536561e-06
3.3598166e-06
3.13514014e-06
2.9342901e-06
2.76110329e-06
2.57278951e-06
2.44489035e-06
2.43387105e-06
2.48584987e-06
2.53339345e-06
2.49124286e-06
2.36046211e-06
2.13569681e-06
1.82503022e-06
1.4529078e-06
1.37184015e-06
2.2097116e-06
3.56657692e-06
5.46547094e-06
7.82356138e-06
1.07500231e-05
1.44388896e-05
1.93617512e-05
2.64162986e-05
3.85689488e-05
5.92546875e-05
9.18896823e-05
0.000145317561
0.000226661064
0.000321952577
0.000285009893
0.000133413923
3.73146176e-05
1.23550057e-05
2.22770501e-05
2.00817678e-05
1.19293207e-05
5.16510687e-06
2.12492631e-06
1.04990963e-06
6.75739668e-07
4.45448938e-07
2.88029115e-07
2.06747036e-07
1.60641242e-07
1.41628536e-07
1.41101315e-07
1.56605117e-07
1.89143883e-07
2.41430689e-07
3.1473443e-07
4.0913212e-07
5.25515707e-07
6.5967329e-07
8.02874132e-07
9.47778791e-07
1.0923504e-06
1.22861979e-06
1.34765781e-06
1.46363531e-06
1.605805e-06
1.89969091e-06
2.64325312e-06
3.78293393e-06
5.10965999e-06
6.59612871e-06
8.19025506e-06
9.84982183e-06
1.15398729e-05
1.32372658e-05
1.49260347e-05
1.65962303e-05
1.82410622e-05
1.9855653e-05
2.1435759e-05
2.29772868e-05
2.44761241e-05
2.59284048e-05
2.73310459e-05
2.86824894e-05
2.99812681e-05
3.1230352e-05
3.24244659e-05
3.3546448e-05
3.45938739e-05
3.55648552e-05
3.64576978e-05
3.72711901e-05
3.80046219e-05
3.86578037e-05
3.92310325e-05
3.97250716e-05
4.01411175e-05
4.04807498e-05
4.07458836e-05
4.09387408e-05
4.10617697e-05
4.11176259e-05
4.11090746e-05
4.10389364e-05
4.09099545e-05
4.07246893e-05
4.04854069e-05
4.01941242e-05
3.98527655e-05
3.94635244e-05
3.90289447e-05
3.85516971e-05
3.80342988e-05
3.74787822e-05
3.68863871e-05
3.62573414e-05
3.55906715e-05
3.48843265e-05
3.41355492e-05
3.33405546e-05
3.24945816e-05
3.15905691e-05
3.06198706e-05
2.95685684e-05
2.84238245e-05
2.71638488e-05
2.57828241e-05
2.42566492e-05
2.26323156e-05
2.08251144e-05
1.95875261e-05
2.00736908e-05
2.15230745e-05
2.35991487e-05
2.58645002e-05
2.82549682e-05
3.08060319e-05
3.37064904e-05
3.66669503e-05
3.95121926e-05
4.20572296e-05
4.39355683e-05
4.44621233e-05
4.4074341e-05
4.34366965e-05
4.29791255e-05
4.32066036e-05
4.50651616e-05
5.02911664e-05
5.89960053e-05
7.26783345e-05
9.41460004e-05
0.000122904331
0.000139572279
0.00010911223
6.40860011e-05
3.38287914e-05
2.37232903e-05
0.000151546558
0.000132925725
8.13522192e-05
3.79923503e-05
1.313479e-05
5.09354212e-06
3.47728825e-06
2.26087249e-06
1.42026554e-06
1.01665727e-06
8.22057212e-07
7.53868145e-07
7.86813568e-07
9.06171586e-07
1.12041197e-06
1.45028522e-06
1.91562993e-06
2.53104352e-06
3.31432719e-06
4.25685538e-06
5.31392048e-06
6.42304438e-06
7.54308736e-06
8.61120929e-06
9.55556448e-06
1.04536683e-05
1.15432194e-05
1.35590068e-05
1.83252167e-05
2.55768504e-05
3.39789482e-05
4.33029329e-05
5.33162897e-05
6.37734336e-05
7.44900278e-05
8.53320695e-05
9.62078173e-05
0.000107055693
0.000117832035
0.000128503092
0.000139038501
0.000149408216
0.000159581684
0.000169529589
0.000179227816
0.000188663149
0.000197821691
0.000206723064
0.000215268017
0.000223352417
0.000230986099
0.00023814983
0.000244826273
0.000251001211
0.000256663716
0.000261806356
0.000266425034
0.000270518924
0.000274090298
0.000277144262
0.000279688477
0.000281733004
0.000283289803
0.000284372621
0.000284996348
0.000285176652
0.000284929057
0.000284268217
0.00028320712
0.000281757383
0.000279930324
0.000277739413
0.00027520084
0.000272332004
0.000269149532
0.000265666948
0.000261892471
0.000257827397
0.000253464675
0.000248789694
0.000243782748
0.000238416827
0.000232657759
0.000226455149
0.000219746559
0.000212432554
0.000204418831
0.000195549464
0.000185774391
0.000174920374
0.000163286456
0.000150425805
0.000141869675
0.00014568009
0.000156360574
0.000171537792
0.000188187864
0.000205828123
0.000224739649
0.000246122091
0.000267848358
0.000288305673
0.000305599551
0.00031747188
0.000319322054
0.000314343132
0.000307025452
0.000300246467
0.000297198172
0.000303764971
0.00032891203
0.000370178509
0.000434376676
0.000531224828
0.000649022584
0.000674041194
0.000496497245
0.000325760229
0.000207629474
0.000161196685
0.000566925889
0.0004966881
0.000306485334
0.00014515662
5.08188647e-05
1.9355146e-05
1.3084659e-05
8.5605167e-06
5.38519833e-06
3.8406869e-06
3.09854621e-06
2.83176608e-06
2.94699195e-06
3.38534848e-06
4.17691108e-06
5.39934385e-06
7.13146132e-06
9.43271393e-06
1.23739839e-05
1.59319946e-05
1.99456904e-05
2.41737479e-05
2.84481093e-05
3.25132505e-05
3.61370925e-05
3.95885493e-05
4.37582647e-05
5.14317639e-05
6.92454902e-05
9.62170417e-05
0.000127440874
0.000161957339
0.000198917411
0.000237411126
0.000276772228
0.00031651636
0.000356317193
0.000395957203
0.000435284389
0.000474182159
0.000512546113
0.000550272764
0.000587256533
0.000623395411
0.00065860481
0.000692843221
0.000726055663
0.000758225509
0.000788651155
0.000817483139
0.000844695755
0.000870226721
0.000894021444
0.000916035749
0.000936236389
0.00095460162
0.000971120636
0.000985793323
0.000998629623
0.00100964868
0.00101887789
0.00102635237
0.00103211334
0.00103620773
0.00103868605
0.00103960116
0.00103900521
0.00103694716
0.00103347023
0.00102861292
0.0010224129
0.00101491513
0.00100617374
0.000996246927
0.000985190102
0.000973047921
0.000959846757
0.000945589016
0.000930248065
0.000913770852
0.000896085833
0.000877095781
0.000856676777
0.000834649205
0.000810786081
0.00078473484
0.000756143854
0.000724460673
0.000689452698
0.000650487632
0.000608412251
0.0005618736
0.000531538713
0.000546032365
0.000585362865
0.000640601565
0.000701249165
0.000765497464
0.000834403276
0.000911643787
0.000989631855
0.00106279329
0.00112449292
0.00116674191
0.00117465463
0.00115880388
0.00113425644
0.00111122795
0.00110116724
0.00112481365
0.0012116317
0.00135322445
0.00157014188
0.0018874402
0.00225855677
0.0023352675
0.0017499428
0.00117095739
0.000766495246
0.00060282195
0.00148682572
0.00130589297
0.000819230051
0.000395395909
0.000142535985
5.35606496e-05
3.55491319e-05
2.34279629e-05
1.47880452e-05
1.05090273e-05
8.44059631e-06
7.67037399e-06
7.93935533e-06
9.07795183e-06
1.11614618e-05
1.43947757e-05
1.89940116e-05
2.51237773e-05
3.29770761e-05
4.25053858e-05
5.32904975e-05
6.46806586e-05
7.62153281e-05
8.71926833e-05
9.7045351e-05
0.000106383192
0.000117767283
0.000138629277
0.000185698214
0.000256137432
0.000337157525
0.000425892429
0.000520097311
0.000617421365
0.000716207549
0.00081527978
0.000913876469
0.00101150967
0.0011078553
0.00120267492
0.0012957593
0.00138690073
0.00147588544
0.00156250403
0.00164657939
0.0017280573
0.00180681848
0.00188144642
0.00195195564
0.00201866313
0.00208150014
0.00214036293
0.00219516426
0.00224583749
0.00229233735
0.00233464087
0.00237274603
0.00240667118
0.00243645351
0.00246214736
0.00248382223
0.00250156166
0.00251546008
0.0025256219
0.00253215747
0.00253518036
0.00253480131
0.00253112301
0.00252423498
0.00251421583
0.00250114171
0.0024851035
0.00246621076
0.00244458128
0.00242032634
0.0023935335
0.00236425048
0.00233247249
0.00229813008
0.00226109414
0.00222119142
0.00217818956
0.00213179078
0.0020815735
0.00202699311
0.00196722711
0.00190140083
0.00182820965
0.00174691306
0.00165589496
0.00155635923
0.00144487713
0.0013721019
0.00140705794
0.00150258385
0.0016355066
0.00178222069
0.0019382813
0.00210622818
0.00229291349
0.00248052265
0.00265726074
0.00280745544
0.00291284009
0.0029422781
0.002917207
0.00287006168
0.0028246697
0.00280824285
0.0028692781
0.00307247633
0.00339975674
0.00388886051
0.00457535951
0.00534290752
0.00551474554
0.00426492425
0.00292103835
0.0019695627
0.00157722048
0.00306486344
0.00271337564
0.00175523125
0.000876425251
0.000329670629
0.00012196632
7.90575971e-05
5.24735127e-05
3.32542855e-05
2.3549579e-05
1.88255015e-05
1.70062113e-05
1.74995338e-05
1.99059314e-05
2.43778277e-05
3.13509551e-05
4.1298363e-05
5.45801238e-05
7.16080945e-05
9.22851108e-05
0.00011571469
0.000140476044
0.000165547317
0.000189469986
0.000210979308
0.000231486159
0.000256727118
0.000302355682
0.000401157835
0.000545961777
0.000709980386
0.000886487745
0.00107081203
0.00125834217
0.00144603473
0.00163186325
0.00181463137
0.00199365814
0.00216855761
0.00233908618
0.00250504105
0.00266621216
0.00282236956
0.00297327453
0.00311870138
0.00325868956
0.0033915771
0.00351635084
0.00363417887
0.00374526794
0.00384956252
0.0039469849
0.00403747861
0.00412101302
0.00419758437
0.00426721687
0.00432996073
0.00438589121
0.00443510638
0.00447772468
0.00451388219
0.00454373094
0.00456743471
0.0045851677
0.00459710902
0.00460343907
0.00460433094
0.00459994313
0.00459041217
0.00457585569
0.00455638514
0.00453213089
0.00450324883
0.0044699056
0.00443225639
0.00439041922
0.0043444508
0.0042943269
0.00423992156
0.00418101273
0.00411730325
0.00404839913
0.00397379288
0.00389278279
0.00380444321
0.00370741065
0.00360013872
0.00348041816
0.00334663686
0.0031957608
0.00302825395
0.0028366652
0.00270843107
0.00276661764
0.00293472663
0.00316853915
0.00343034313
0.00371223374
0.00401849499
0.00435494489
0.0046954223
0.00501856941
0.00529850079
0.00550529738
0.00559248667
0.00558997922
0.00554711142
0.00550349225
0.00550580016
0.00563675061
0.00600098242
0.00657035562
0.00739024714
0.0084848988
0.00965240555
0.00994639868
0.00801969894
0.00565906987
0.00394368008
0.00323247911
0.00523145307
0.00469045008
0.00317517308
0.00167285026
0.000669303915
0.00024530096
0.000154150641
0.000102940495
6.55315073e-05
4.62505702e-05
3.67950515e-05
3.30363852e-05
3.3782785e-05
3.82106014e-05
4.6583264e-05
5.96940576e-05
7.84191047e-05
0.000103409462
0.000135377082
0.000174083455
0.000217802368
0.000263843448
0.000310266744
0.000354520484
0.000394503577
0.000433027753
0.000480896409
0.000565232926
0.000738638248
0.000985379421
0.00125843685
0.00154526446
0.00183817972
0.00213024866
0.00241736668
0.00269713451
0.0029684173
0.00323079141
0.00348419483
0.00372870281
0.00396439322
0.00419128961
0.00440935163
0.00461848878
0.00481850992
0.0050088973
0.00518705676
0.00535477364
0.00551276901
0.00566122141
0.00580014864
0.00592955716
0.00604947214
0.00615994242
0.00626104222
0.00635287267
0.00643555986
0.00650925393
0.00657412667
0.0066303688
0.00667818703
0.00671780211
0.00674944417
0.00677335128
0.00678976338
0.00679891837
0.00680104244
0.00679634188
0.00678499432
0.00676715179
0.0067429554
0.00671256501
0.00667616813
0.00663396362
0.00658613474
0.00653281818
0.00647407556
0.00640986971
0.00634003646
0.00626428939
0.0061822433
0.00609339003
0.00599707171
0.00589239613
0.00577816502
0.00565264632
0.00551377586
0.00535870518
0.00518499077
0.00498838926
0.00476781852
0.00451108154
0.00433332643
0.00440653717
0.00463945738
0.00496684861
0.00534135688
0.00575173118
0.00620040329
0.00669178712
0.00719283799
0.0076727434
0.0080979605
0.00843014128
0.00861542046
0.00868717941
0.00870477214
0.00871954986
0.00879355444
0.00903622006
0.00958017581
0.0103914496
0.0115079848
0.012925032
0.0143781993
0.0148062818
0.0125050801
0.00915977062
0.00657779207
0.00549235743
0.00771792488
0.00700784062
0.00499900563
0.00282240593
0.0012265419
0.000454171383
0.000274189566
0.000183785299
0.000117588503
8.27251982e-05
6.54910023e-05
5.84295265e-05
5.9346317e-05
6.66980008e-05
8.08773112e-05
0.000103151019
0.000134919373
0.000177149079
0.000230802872
0.00029520673
0.000367237921
0.000442327828
0.000517307849
0.000588498578
0.000653341147
0.000716962589
0.000796797038
0.000932645505
0.00119601981
0.00155818806
0.00194866099
0.00234841481
0.0027472952
0.0031371585
0.00351396019
0.00387589412
0.00422261271
0.00455446793
0.00487208321
0.00517610721
0.00546708458
0.00574541422
0.00601135692
0.00626507548
0.00650654908
0.00673279799
0.00694543719
0.00714560458
0.00733380451
0.00751022922
0.00767497639
0.0078281375
0.00796981778
0.00810014159
0.00821925504
0.00832732818
0.0084245534
0.00851114479
0.00858733587
0.00865337686
0.0087095317
0.00875607596
0.00879329208
0.00882146779
0.00884089005
0.00885184115
0.00885458892
0.0088493783
0.00883642185
0.00881590197
0.00878798571
0.00875285652
0.00871072551
0.0086618152
0.00860633015
0.00854442323
0.00847616543
0.00840152084
0.00832031262
0.00823222628
0.00813683458
0.00803357494
0.00792171533
0.00780028044
0.0076679401
0.00752279991
0.00736251904
0.00718396705
0.0069841731
0.00675822029
0.00650361019
0.00620465694
0.00599126346
0.00606926671
0.00634909286
0.00674932648
0.00721751987
0.00773716318
0.00830934721
0.00893608542
0.00957816924
0.0101979653
0.0107571616
0.0112131065
0.0115119437
0.0116878939
0.0118048417
0.0119212301
0.0121080615
0.0124881812
0.0132044985
0.0142218859
0.0155624751
0.0171899033
0.0188096394
0.0193619865
0.0170507213
0.0130512263
0.00963381215
0.0081155105
0.0102755449
0.0094100255
0.00704973696
0.00428581101
0.00205061619
0.000793904692
0.000456188824
0.000305585324
0.000196607491
0.000137912807
0.000108640178
9.6286153e-05
9.70666703e-05
0.00010829313
0.000130453496
0.000165323553
0.000214820601
0.000280044234
0.000361855183
0.00045851241
0.000564751377
0.000673692824
0.000781071307
0.000882757917
0.000976843709
0.00107177438
0.00119212966
0.00138904977
0.0017479407
0.00222431846
0.00272501097
0.00322552486
0.00371478514
0.00418519793
0.00463400298
0.00506074463
0.00546625022
0.00585181401
0.00621879108
0.00656839273
0.00690159786
0.00721914211
0.0075215466
0.00780919848
0.00808062018
0.00833508449
0.00857460503
0.00879998662
0.0090116312
0.00920975507
0.0093945183
0.00956607721
0.00972459804
0.00987026271
0.0100032722
0.0101238492
0.0102322368
0.0103286984
0.0104135151
0.0104869831
0.010549411
0.010601117
0.0106424244
0.0106736598
0.0106951473
0.0107072043
0.0107101328
0.0107042102
0.01068968
0.0106667522
0.0106356175
0.0105964797
0.0105495695
0.0104951293
0.0104333826
0.0103644985
0.0102885615
0.010205547
0.0101152818
0.0100174461
0.00991159966
0.00979716285
0.00967337742
0.00953925128
0.00939341184
0.00923392797
0.00905834377
0.00886346975
0.0086460637
0.00840092761
0.00812457994
0.00779958385
0.00756187612
0.00763790016
0.00794937055
0.00840397551
0.00894499641
0.00955208344
0.0102254775
0.0109622764
0.0117193584
0.0124542484
0.0131256765
0.0136894319
0.0140953817
0.0143777174
0.0146021291
0.0148312937
0.0151408707
0.0156576541
0.0165231745
0.0177038309
0.0192047109
0.0209616867
0.0226688549
0.0233159553
0.0211939941
0.0169661102
0.0128944383
0.0108918071
0.0127946385
0.0117559112
0.0091618091
0.00596533488
0.00314191638
0.0013287091
0.00072225217
0.000480134769
0.000310739119
0.000217438784
0.000170435398
0.000150004582
0.000149949113
0.000165857856
0.000198168088
0.000249016836
0.000320569466
0.000413538211
0.000527949885
0.000660152048
0.000802244367
0.000945346623
0.00108499996
0.00121790157
0.00134407716
0.00147583445
0.00164426432
0.00190896036
0.00236229493
0.00294270031
0.00353827747
0.00412172952
0.00468305636
0.00521664545
0.00572159496
0.00619891518
0.00665049827
0.00707839969
0.00748452159
0.00787047691
0.0082375476
0.00858670266
0.00891863723
0.00923353781
0.00952923494
0.00980738922
0.0100693584
0.0103157638
0.0105469619
0.0107631945
0.0109646691
0.0111515904
0.0113241713
0.0114826377
0.0116272333
0.0117582221
0.0118758878
0.011980533
0.0120724777
0.0121520559
0.0122196128
0.0122755022
0.0123200817
0.0123537106
0.0123767442
0.0123895305
0.0123924008
0.0123856623
0.0123695868
0.0123444107
0.0123103468
0.0122676178
0.0122164718
0.0121571695
0.0120899524
0.0120150063
0.011932432
0.011842222
0.0117442164
0.0116381026
0.0115234438
0.0113996641
0.0112660054
0.0111214951
0.0109647679
0.0107939221
0.0106064777
0.0103993015
0.0101690453
0.00991044835
0.00961943811
0.00927830149
0.00902409928
0.00909456848
0.00942700045
0.00992118193
0.0105185763
0.0111961002
0.011951189
0.0127762247
0.0136255333
0.0144530734
0.0152156465
0.015869031
0.0163681207
0.0167468107
0.0170712328
0.0174065551
0.0178306581
0.0184693933
0.0194577637
0.0207646646
0.0223798497
0.0242157625
0.025962807
0.0266706961
0.0247822995
0.0206325113
0.0161861055
0.0137126555
0.0152578463
0.0140141954
0.0112415711
0.00775222011
0.00446651053
0.00210102178
0.00110097114
0.000719644698
0.00046846339
0.000327234528
0.00025524876
0.000223009361
0.000220801539
0.000241766474
0.000285964116
0.000355464915
0.000452073165
0.000575289441
0.000723433558
0.000890397017
0.00106597025
0.001240465
0.00141048005
0.00157462603
0.00173558419
0.00190941746
0.00213241104
0.00246918345
0.00301191365
0.00368191973
0.00435503288
0.00500447182
0.00562265491
0.00620638484
0.00675644693
0.00727498471
0.00776462119
0.00822789764
0.00866705139
0.00908393951
0.00948003172
0.00985644757
0.0102140376
0.0105518968
0.0108694707
0.0111686773
0.011450519
0.011715517
0.0119640122
0.0121962722
0.0124125425
0.0126130673
0.0127980969
0.0129678936
0.0131227368
0.0132629254
0.0133887774
0.0135006296
0.0135988356
0.0136837626
0.0137557882
0.0138152981
0.0138626801
0.0138983231
0.0139226107
0.0139359185
0.0139386053
0.0139310059
0.0139134197
0.0138861086
0.0138493072
0.013803256
0.0137482196
0.0136844763
0.0136122853
0.01353185
0.0134432889
0.0133466159
0.0132416898
0.0131282133
0.0130057629
0.0128737784
0.0127315174
0.0125780483
0.0124120419
0.0122316622
0.0120344579
0.0118174123
0.0115771805
0.0113085567
0.0110071795
0.0106562229
0.0103911571
0.0104544498
0.0107993384
0.0113227611
0.0119647968
0.0126994419
0.0135208645
0.0144171368
0.015340785
0.0162430438
0.0170794366
0.0178066341
0.0183848198
0.0188475397
0.0192606012
0.0196904836
0.0202158342
0.020959249
0.0220474392
0.0234517269
0.0251486411
0.0270307374
0.0287877175
0.0295267295
0.0278466653
0.0239183184
0.0193648739
0.0165154758
0.0176627486
0.0161984697
0.0132614603
0.00956276376
0.0059609473
0.0031263421
0.00161679806
0.00103552853
0.000677493541
0.000472852452
0.000367140808
0.000318335096
0.000311805266
0.000337429213
0.000394341391
0.000483820554
0.000606442072
0.000759641719
0.00093947829
0.00113757362
0.0013425078
0.00154519264
0.00174413614
0.00194028908
0.00213906441
0.00235974864
0.00264217852
0.00305250942
0.00367671572
0.00442101284
0.00515626431
0.00585855043
0.00652293391
0.0071482916
0.00773659799
0.00829070618
0.008813653
0.00930824189
0.00977688989
0.0102215906
0.0106439269
0.0110451135
0.0114260245
0.0117847438
0.0121227073
0.0124413682
0.0127415243
0.0130236437
0.013288068
0.0135350908
0.0137649909
0.013978046
0.0141745394
0.0143547656
0.0145190353
0.014667679
0.0148010456
0.0149195033
0.0150234364
0.0151132427
0.0151893302
0.0152521139
0.0153020105
0.0153394363
0.0153648017
0.0153785085
0.0153809419
0.0153724635
0.0153533997
0.0153240379
0.0152846343
0.0152354469
0.0151767565
0.0151088586
0.0150320306
0.0149464939
0.0148523863
0.0147497456
0.0146384539
0.0145182341
0.0143886823
0.0142492629
0.0140992582
0.0139377921
0.0137635895
0.0135749025
0.0133693404
0.0131440374
0.0128957284
0.0126195001
0.0123106823
0.0119539559
0.011681869
0.0117371644
0.0120889286
0.0126341075
0.0133118432
0.0140932718
0.0149691289
0.015923571
0.0169077276
0.0178707036
0.0187672259
0.019555443
0.0202007095
0.0207362538
0.0212270813
0.0217401189
0.0223538164
0.0231863953
0.0243558483
0.0258353108
0.0275898348
0.0294949995
0.0312415225
0.031988337
0.0304684604
0.0268028348
0.0223294231
0.0192391047
0.0199915314
0.0183200162
0.0152277369
0.0113495896
0.00755481564
0.00438399406
0.00229905445
0.00143795945
0.000943554879
0.000658584245
0.000509238631
0.000438153555
0.000424121333
0.000452973287
0.000522177511
0.000631306504
0.000778807256
0.000959496374
0.00116718614
0.00139200745
0.00162256914
0.00185133501
0.00207896373
0.00230866169
0.00254828105
0.00281956486
0.00316410762
0.00364651359
0.00434270605
0.00514760021
0.00593318644
0.006679246
0.00738299312
0.00804476826
0.00866723748
0.00925361735
0.00980712931
0.0103306895
0.0108267963
0.0112975149
0.011744498
0.0121690309
0.012571455
0.0129503561
0.0133077787
0.0136449023
0.0139624056
0.0142607311
0.0145402308
0.0148012243
0.015044021
0.0152689294
0.0154762632
0.0156663464
0.0158395193
0.0159961417
0.016136592
0.0162612677
0.0163705828
0.0164649644
0.0165448496
0.0166106818
0.0166629055
0.0167019639
0.016728293
0.0167423207
0.0167444575
0.0167350917
0.0167145768
0.0166832259
0.0166413168
0.0165891251
0.0165269479
0.016455098
0.0163738717
0.0162835088
0.0161841672
0.0160759116
0.0159586502
0.0158321297
0.0156959711
0.0155496693
0.0153925372
0.0152237653
0.0150421448
0.0148460308
0.0146331119
0.0144008972
0.0141459786
0.0138637108
0.0135494481
0.0131896276
0.0129131297
0.0129604391
0.0133152531
0.0138765741
0.0145830315
0.0154030781
0.0163240075
0.0173263951
0.0183601834
0.0193727986
0.0203185781
0.0211575726
0.0218600655
0.0224590167
0.0230182947
0.0236045977
0.024295464
0.0252041401
0.0264399065
0.0279768761
0.0297700109
0.031680574
0.0334020653
0.0341393267
0.0327330485
0.0293218337
0.0250304536
0.0218263001
0.0222173309
0.0203745956
0.0171524588
0.0130959253
0.00918805431
0.00581467689
0.00318422944
0.00193804201
0.00127001635
0.000886817771
0.000683244695
0.000583455764
0.000557750658
0.000587307871
0.000667094809
0.000794058383
0.000963800455
0.00116837619
0.00139978698
0.00164757768
0.00190127085
0.00215525756
0.00241219938
0.00267724358
0.00296021771
0.0032844208
0.00369148105
0.00424219516
0.00500086584
0.00585549013
0.00668315198
0.00746711934
0.00820605264
0.0089011742
0.00955545589
0.0101722341
0.0107547647
0.0113059829
0.0118284095
0.0123241427
0.0127948806
0.0132420291
0.01366496
0.014063612
0.0144399249
0.0147949049
0.0151291617
0.0154431287
0.0157371744
0.0160116445
0.0162668776
0.016503212
0.01672099
0.0169205644
0.0171023037
0.0172665962
0.0174138491
0.0175444885
0.0176589577
0.0177577121
0.0178412179
0.0179099466
0.01796437
0.0180049581
0.0180321725
0.0180464664
0.018048276
0.0180380162
0.0180160678
0.0179827702
0.017938423
0.0178833201
0.0178177745
0.0177421174
0.0176566642
0.0175616742
0.0174573259
0.0173437131
0.0172207726
0.0170882782
0.0169458792
0.0167931062
0.0166293063
0.0164537458
0.0162652904
0.0160624659
0.0158431779
0.0156049008
0.0153443774
0.0150572418
0.0147390232
0.0143779467
0.0140989003
0.0141386366
0.0144938193
0.0150669369
0.0157965164
0.0166485605
0.0176069969
0.0186490938
0.0197237143
0.020776972
0.0217631909
0.0226446598
0.0233963169
0.0240508815
0.024670813
0.0253220163
0.0260805327
0.0270542462
0.0283438181
0.0299234683
0.0317392962
0.033641008
0.0353271353
0.0360426579
0.0347147466
0.0315280186
0.0274601129
0.0242379295
0.0243170111
0.0223483069
0.0190396327
0.0148037249
0.0108184246
0.00734858699
0.00428672074
0.00255239959
0.00165950118
0.00115829066
0.000889457901
0.000754129748
0.000711794188
0.000738610664
0.00082622915
0.000968204727
0.00115683748
0.00138157286
0.00163315732
0.00190125104
0.00217672955
0.00245590226
0.00274313281
0.00304512157
0.00337312961
0.00375108967
0.00421924183
0.00483328971
0.00564602305
0.00654242813
0.00740671571
0.00822496727
0.00899664277
0.00972338676
0.0104082053
0.0110543919
0.0116651407
0.0122433486
0.0127915229
0.0133117723
0.0138058185
0.0142751158
0.0147181804
0.0151363593
0.0155312502
0.0159037463
0.0162544184
0.0165837019
0.0168919851
0.0171796408
0.0174470363
0.0176945389
0.0179225196
0.0181313591
0.0183214541
0.0184932213
0.0186470963
0.018783534
0.0189030066
0.0190059984
0.0190930045
0.0191645247
0.0192210583
0.0192631024
0.0192911442
0.0193056628
0.0193071198
0.0192959571
0.0192725832
0.0192373643
0.019190623
0.0191326714
0.0190638391
0.0189844763
0.0188949189
0.0187954456
0.0186862562
0.0185674757
0.0184390722
0.0183008483
0.0181524851
0.0179935534
0.0178234356
0.0176414826
0.0174467889
0.0172378936
0.0170128035
0.0167691252
0.0165037743
0.0162126743
0.0158916355
0.0155305956
0.0152503728
0.0152831257
0.0156367641
0.0162182185
0.0169662995
0.0178448175
0.0188344597
0.0199094124
0.0210175146
0.0221038866
0.0231232035
0.0240402754
0.024834414
0.0255380832
0.0262120804
0.026921014
0.02773891
0.028767973
0.0301002887
0.0317093716
0.0335337898
0.0354149127
0.0370590544
0.0377450795
0.0364685674
0.0334722738
0.0296342631
0.0264567213
0.0262771056
0.0242263932
0.020883304
0.0164823455
0.0124204834
0.00892567857
0.00558222249
0.00329478433
0.00211716348
0.00147357579
0.00112751992
0.000949502182
0.000885029085
0.00090500434
0.000997005089
0.00115065095
0.00135470586
0.00159626873
0.00186529711
0.00215197785
0.00244864943
0.00275334568
0.00307179999
0.00341186647
0.0037856823
0.00421698599
0.00474363379
0.00541577116
0.00627570814
0.00720839953
0.00810588152
0.00895629183
0.00975938404
0.0105168875
0.0112316575
0.0119068362
0.0125454948
0.0131504553
0.0137241895
0.0142688031
0.0147860255
0.0152770559
0.0157404075
0.0161780618
0.0165914122
0.01698128
0.0173482164
0.0176926658
0.0180150391
0.0183157368
0.0185951553
0.018853691
0.0190917441
0.019309723
0.0195080532
0.0196871799
0.0198475676
0.0199897003
0.0201140797
0.0202212195
0.0203116441
0.0203858823
0.0204444615
0.0204879064
0.0205167302
0.0205314383
0.020532518
0.0205204388
0.0204956376
0.020458508
0.0204093964
0.020348634
0.0202765675
0.0201935671
0.0200999899
0.0199961351
0.0198822234
0.0197584138
0.0196247071
0.019480937
0.0193268189
0.0191619679
0.0189858008
0.0187979695
0.0185974409
0.0183828749
0.0181524352
0.0179038793
0.0176343129
0.0173399573
0.0170169734
0.0166568873
0.0163765171
0.0164029309
0.0167536368
0.0173406001
0.0181032649
0.019003515
0.020018951
0.0211208663
0.0222561103
0.0233691052
0.0244152428
0.0253620982
0.0261930701
0.026940296
0.0276626508
0.0284229781
0.0292928011
0.0303683112
0.031732929
0.0333588412
0.0351789354
0.0370302139
0.0386290629
0.0392816162
0.0380351935
0.0351977479
0.0315785806
0.0284823215
0.0280935798
0.0259982704
0.0226715025
0.0181405437
0.0139816748
0.0104894001
0.00702542335
0.00419492442
0.00265488559
0.00183539718
0.00139769854
0.00116915803
0.00107654316
0.00108511624
0.00117761381
0.00133937974
0.00155555383
0.00181113046
0.00209557436
0.00239976331
0.00271741611
0.00304802949
0.00339838699
0.00377711254
0.00419670033
0.00468003847
0.00526202419
0.00598733191
0.00688918113
0.00785453511
0.00878317251
0.00966461135
0.0104985299
0.0112865006
0.0120311019
0.0127352515
0.0134018564
0.0140336403
0.0146330251
0.0152021061
0.0157426345
0.0162552973
0.0167391554
0.0171963757
0.0176282212
0.0180354686
0.018418662
0.0187782602
0.0191146988
0.0194284072
0.0197198113
0.0199893378
0.0202374163
0.0204644841
0.0206709957
0.020857426
0.0210242689
0.0211720384
0.0213012668
0.0214124975
0.0215062855
0.0215831895
0.0216437657
0.0216885674
0.0217181345
0.0217329993
0.0217336754
0.0217206603
0.0216944198
0.0216553766
0.0216039011
0.0215403452
0.0214650728
0.0213784753
0.0212809326
0.0211727648
0.0210542128
0.0209254724
0.0207865791
0.0206373987
0.0204776836
0.0203071005
0.0201253315
0.0199318637
0.0197257807
0.0195058658
0.0192704409
0.0190174268
0.0187441313
0.0184470801
0.0181228259
0.0177643421
0.0174846001
0.0175053064
0.017852051
0.0184421515
0.0192159902
0.0201337883
0.02117023
0.0222938788
0.0234506272
0.0245844881
0.025651942
0.0266235385
0.0274864616
0.0282723867
0.0290379868
0.0298438875
0.0307586197
0.03187192
0.0332583497
0.0348891431
0.0366974326
0.0385219991
0.0400607641
0.040679022
0.0394448852
0.0367391628
0.0333205403
0.0303244156
0.0297691512
0.0276587239
0.024391029
0.0197822492
0.0154988448
0.0120046595
0.00855134325
0.00527881352
0.0032951896
0.00225106378
0.00170230086
0.00141350057
0.0012862215
0.00127838723
0.0013671674
0.0015334092
0.0017586128
0.00202582116
0.00232412831
0.00264509194
0.00298362969
0.0033404266
0.00372302212
0.00414045962
0.0046051483
0.00513866608
0.00577271399
0.00654688573
0.0074867236
0.00848247555
0.00944118059
0.0103531892
0.0112178432
0.0120363852
0.0128110292
0.0135444162
0.0142392613
0.0148981729
0.0155235127
0.0161173601
0.0166815518
0.0172159311
0.0177205994
0.0181975977
0.0186481002
0.0190728576
0.0194724159
0.0198472516
0.0201978275
0.0205246031
0.0208280352
0.0211085819
0.0213667034
0.0216028667
0.0218175565
0.0220112788
0.0221845578
0.0223379387
0.0224719858
0.0225872733
0.0226843878
0.0227639195
0.022826454
0.0228725749
0.022902849