/*--------------------------------*- C++ -*----------------------------------*\
| =========                 |                                                 |
| \\      /  F ield         | OpenFOAM: The Open Source CFD Toolbox           |
|  \\    /   O peration     | Version:  2212                                  |
|   \\  /    A nd           | Website:  www.openfoam.com                      |
|    \\/     M anipulation  |                                                 |
\*---------------------------------------------------------------------------*/
FoamFile
{
    version     2.0;
    format      ascii;
    arch        "LSB;label=32;scalar=64";
    class       volScalarField;
    location    "1880";
    object      nut;
}
// * * * * * * * * * * * * * * * * * * * * * * * * * * * * * * * * * * * * * //

dimensions      [0 2 -1 0 0 0 0];

internalField   nonuniform List<scalar> 
15600
(
1.56320734e-09
1.87344105e-09
8.11895583e-10
3.75118679e-11
3.2741025e-10
2.96570002e-10
1.6276568e-10
1.16427942e-10
8.55467979e-11
6.7155711e-11
5.3196041e-11
4.71373273e-11
4.4967371e-11
4.77092159e-11
5.65761844e-11
7.28016955e-11
9.5619297e-11
1.23572096e-10
1.54878851e-10
1.83585358e-10
2.02219383e-10
2.09674308e-10
2.09442398e-10
2.00813044e-10
1.86996021e-10
1.81758359e-10
1.69738667e-10
2.48541281e-10
6.00097475e-10
1.16884259e-09
1.85802669e-09
2.67384234e-09
3.53925151e-09
4.42102602e-09
5.28218902e-09
6.10444328e-09
6.8749146e-09
7.58792306e-09
8.24051232e-09
8.83184885e-09
9.36175212e-09
9.83044219e-09
1.02383168e-08
1.05860295e-08
1.08744465e-08
1.11046993e-08
1.12782078e-08
1.1396866e-08
1.14626401e-08
1.14774951e-08
1.14440448e-08
1.13652011e-08
1.1244084e-08
1.1083999e-08
1.08883986e-08
1.06608407e-08
1.04049345e-08
1.01242996e-08
9.82251751e-09
9.50308864e-09
9.16939816e-09
8.82468218e-09
8.47199798e-09
8.11420558e-09
7.75394245e-09
7.3936149e-09
7.03538107e-09
6.68115127e-09
6.33259695e-09
5.9911791e-09
5.65819376e-09
5.33480898e-09
5.02203808e-09
4.7207099e-09
4.43145201e-09
4.15468285e-09
3.89062896e-09
3.6393539e-09
3.4007928e-09
3.17482509e-09
2.96129125e-09
2.76002915e-09
2.57080682e-09
2.3934621e-09
2.22764715e-09
2.07336259e-09
1.93012573e-09
1.79867161e-09
1.67839155e-09
1.57086691e-09
1.47815171e-09
1.3773383e-09
1.31309628e-09
1.29959017e-09
1.29099951e-09
1.25496243e-09
1.15774871e-09
1.01502145e-09
8.4017738e-10
6.52980821e-10
4.73694614e-10
4.09229419e-10
6.06188784e-10
9.05061888e-10
1.28959079e-09
1.71115052e-09
2.16498332e-09
2.65786499e-09
3.23104683e-09
3.96030964e-09
5.18333503e-09
7.27007638e-09
1.05583088e-08
1.61467067e-08
2.54172336e-08
3.82795542e-08
3.663825e-08
1.77672503e-08
4.99902887e-09
1.65355745e-09
1.76566132e-08
1.59365247e-08
9.39168942e-09
3.93313892e-09
1.5006642e-09
6.99753391e-10
4.45828116e-10
3.03572135e-10
2.0938523e-10
1.64475975e-10
1.42480366e-10
1.39821663e-10
1.53679037e-10
1.86628329e-10
2.44815963e-10
3.3712805e-10
4.72578321e-10
6.63838828e-10
9.26824966e-10
1.27109943e-09
1.69720126e-09
2.20246514e-09
2.77473725e-09
3.37334393e-09
3.94452782e-09
4.49130798e-09
5.06524389e-09
6.02146306e-09
8.3531039e-09
1.1961374e-08
1.61568978e-08
2.08596156e-08
2.59047852e-08
3.11589255e-08
3.65109622e-08
4.18873851e-08
4.72373412e-08
5.25291873e-08
5.7741332e-08
6.28583314e-08
6.78667816e-08
7.2753773e-08
7.75063235e-08
8.2112218e-08
8.65617137e-08
9.08498767e-08
9.49720451e-08
9.89376792e-08
1.02731608e-07
1.0629286e-07
1.09617959e-07
1.12701344e-07
1.15537573e-07
1.18122726e-07
1.20454467e-07
1.22532104e-07
1.24356489e-07
1.25929951e-07
1.27256196e-07
1.28340149e-07
1.29187802e-07
1.2980613e-07
1.3020283e-07
1.30386267e-07
1.3036516e-07
1.30148414e-07
1.29744695e-07
1.29162098e-07
1.28407788e-07
1.27488143e-07
1.26409246e-07
1.25178046e-07
1.23802608e-07
1.22291411e-07
1.20652454e-07
1.18892202e-07
1.17014607e-07
1.15020408e-07
1.12906527e-07
1.10666461e-07
1.0829147e-07
1.05769546e-07
1.03085594e-07
1.00217196e-07
9.71369429e-08
9.38006094e-08
9.01675461e-08
8.61684311e-08
8.17851542e-08
7.6940893e-08
7.17861937e-08
6.60188334e-08
6.22103729e-08
6.33328285e-08
6.60423972e-08
6.90698395e-08
7.10168843e-08
7.17866058e-08
7.16163741e-08
7.13013862e-08
7.07208401e-08
6.97654477e-08
6.83267603e-08
6.60547219e-08
6.21581056e-08
5.71035234e-08
5.1807428e-08
4.68440543e-08
4.26849733e-08
4.00005607e-08
4.00454536e-08
4.29279261e-08
4.95740417e-08
6.2159302e-08
8.19308733e-08
9.84545847e-08
8.25052675e-08
5.00643829e-08
2.66444279e-08
1.87634653e-08
3.62429527e-07
3.18296036e-07
1.91691905e-07
8.68502294e-08
2.80756255e-08
1.03258995e-08
6.97719865e-09
4.68084438e-09
3.13378825e-09
2.45305809e-09
2.21027035e-09
2.25586115e-09
2.59753009e-09
3.2729034e-09
4.39449435e-09
6.13578777e-09
8.71315745e-09
1.24368688e-08
1.76990129e-08
2.48366021e-08
3.4019322e-08
4.5210667e-08
5.80451549e-08
7.16359026e-08
8.47342911e-08
9.71493586e-08
1.10057394e-07
1.29213822e-07
1.73648606e-07
2.42575341e-07
3.22331363e-07
4.10997842e-07
5.06393208e-07
6.06173684e-07
7.08557888e-07
8.12248326e-07
9.16351766e-07
1.02027249e-06
1.12359078e-06
1.22598721e-06
1.32717688e-06
1.42687827e-06
1.52480353e-06
1.62067495e-06
1.71426333e-06
1.80544221e-06
1.89407967e-06
1.98040072e-06
2.06330181e-06
2.14162518e-06
2.21568829e-06
2.28530381e-06
2.35029537e-06
2.41051561e-06
2.46584841e-06
2.51621094e-06
2.56155253e-06
2.60185411e-06
2.63712698e-06
2.66741021e-06
2.69276826e-06
2.71328955e-06
2.72908172e-06
2.74027063e-06
2.74699419e-06
2.7493988e-06
2.74763048e-06
2.74182755e-06
2.73211289e-06
2.71859645e-06
2.70138569e-06
2.68060962e-06
2.65642478e-06
2.62900031e-06
2.59849874e-06
2.565053e-06
2.52874487e-06
2.48958893e-06
2.44751866e-06
2.40239378e-06
2.35402502e-06
2.30215206e-06
2.24644609e-06
2.18641947e-06
2.12147098e-06
2.05063464e-06
1.97300591e-06
1.8870644e-06
1.79235684e-06
1.68718867e-06
1.57457843e-06
1.44894508e-06
1.36724859e-06
1.39375376e-06
1.45495568e-06
1.52305038e-06
1.56815979e-06
1.58783017e-06
1.58738234e-06
1.58322828e-06
1.57202567e-06
1.55006148e-06
1.51255137e-06
1.45439991e-06
1.35967601e-06
1.23961923e-06
1.11391465e-06
9.94943919e-07
8.92404553e-07
8.19679214e-07
7.97012118e-07
8.20343462e-07
9.0301009e-07
1.0695607e-06
1.31796548e-06
1.43683461e-06
1.10752698e-06
7.41680312e-07
4.79512245e-07
3.80725419e-07
2.87190674e-06
2.53053559e-06
1.51863442e-06
7.01477275e-07
2.33936042e-07
8.56618843e-08
5.74328466e-08
3.87351814e-08
2.59456364e-08
2.02197139e-08
1.81638932e-08
1.84666219e-08
2.11960345e-08
2.66241143e-08
3.56513176e-08
4.96846149e-08
7.05277201e-08
1.0074504e-07
1.43615911e-07
2.02079524e-07
2.77712591e-07
3.70141816e-07
4.76231778e-07
5.88159256e-07
6.96156173e-07
7.97512117e-07
8.99041547e-07
1.04456257e-06
1.39078142e-06
1.93459255e-06
2.56500238e-06
3.26560259e-06
4.02003471e-06
4.80962176e-06
5.62039168e-06
6.44204849e-06
7.26758158e-06
8.09235097e-06
8.91315437e-06
9.72760115e-06
1.0533579e-05
1.13289865e-05
1.21116428e-05
1.28794057e-05
1.36304726e-05
1.4363941e-05
1.50787085e-05
1.57747379e-05
1.64309208e-05
1.70541478e-05
1.76447834e-05
1.82013037e-05
1.87223022e-05
1.92065846e-05
1.9653187e-05
2.00613921e-05
2.04307233e-05
2.07609417e-05
2.10520381e-05
2.13042152e-05
2.15178713e-05
2.16935898e-05
2.1832106e-05
2.19342984e-05
2.20011452e-05
2.2033695e-05
2.20330013e-05
2.20000642e-05
2.19357724e-05
2.18409208e-05
2.17162947e-05
2.15628529e-05
2.13817741e-05
2.11743426e-05
2.09417982e-05
2.06851575e-05
2.04050454e-05
2.01015684e-05
1.97742007e-05
1.94218405e-05
1.90429947e-05
1.86356145e-05
1.81970935e-05
1.77236002e-05
1.72103369e-05
1.66497049e-05
1.60343291e-05
1.53522258e-05
1.45990254e-05
1.37610524e-05
1.28586992e-05
1.18492599e-05
1.11974957e-05
1.14153675e-05
1.19096805e-05
1.2452558e-05
1.28114556e-05
1.29664874e-05
1.29619717e-05
1.29190518e-05
1.28112229e-05
1.26192449e-05
1.22998123e-05
1.18119025e-05
1.10395385e-05
1.00706197e-05
9.05630392e-06
8.0947084e-06
7.26398958e-06
6.67099004e-06
6.46506682e-06
6.61238166e-06
7.206584e-06
8.40126442e-06
1.0129073e-05
1.08524406e-05
8.1737424e-06
5.4030001e-06
3.57307499e-06
2.94651475e-06
1.27107449e-05
1.13791979e-05
6.87853407e-06
3.26052592e-06
1.15665475e-06
4.29497389e-07
2.84111669e-07
1.92886317e-07
1.29500088e-07
1.00472948e-07
8.97623898e-08
9.06669409e-08
1.03432262e-07
1.29174745e-07
1.72165538e-07
2.39144986e-07
3.38949836e-07
4.84006852e-07
6.90417328e-07
9.73072874e-07
1.34014414e-06
1.78897683e-06
2.30384619e-06
2.84445232e-06
3.36148873e-06
3.82898609e-06
4.27215442e-06
4.89414761e-06
6.4439329e-06
8.91154589e-06
1.1777593e-05
1.49594447e-05
1.83841936e-05
2.19650207e-05
2.56377812e-05
2.93550131e-05
3.30848814e-05
3.68066423e-05
4.05064092e-05
4.41741289e-05
4.78010797e-05
5.13785676e-05
5.48974647e-05
5.83486434e-05
6.17242433e-05
6.5021857e-05
6.82387927e-05
7.12850957e-05
7.41623221e-05
7.68989305e-05
7.9493377e-05
8.19396807e-05
8.42324226e-05
8.63670287e-05
8.83398426e-05
9.01481816e-05
9.17903127e-05
9.32654329e-05
9.45736379e-05
9.57158469e-05
9.66937386e-05
9.7509707e-05
9.81667344e-05
9.8668355e-05
9.90184873e-05
9.92213151e-05
9.9281028e-05
9.92015789e-05
9.89864483e-05
9.86387086e-05
9.81613824e-05
9.75581991e-05
9.68338002e-05
9.59932786e-05
9.50415606e-05
9.39826574e-05
9.28189677e-05
9.1550729e-05
9.01755036e-05
8.86883848e-05
8.70827316e-05
8.53494971e-05
8.3477101e-05
8.14487742e-05
7.92431295e-05
7.68268913e-05
7.41661008e-05
7.12075755e-05
6.79263095e-05
6.42576162e-05
6.02662499e-05
5.57384242e-05
5.278268e-05
5.37318772e-05
5.59213939e-05
5.82901258e-05
5.98462057e-05
6.0500798e-05
6.04513025e-05
6.01709774e-05
5.96153144e-05
5.86891121e-05
5.71839047e-05
5.4914398e-05
5.14063804e-05
4.70280007e-05
4.24229365e-05
3.80298408e-05
3.42095863e-05
3.14532259e-05
3.04011231e-05
3.09006798e-05
3.33179094e-05
3.81815532e-05
4.50235482e-05
4.75851162e-05
3.52684466e-05
2.26036854e-05
1.4937779e-05
1.26568606e-05
3.7795828e-05
3.46757956e-05
2.15306749e-05
1.06108245e-05
4.10580614e-06
1.57187416e-06
1.02741603e-06
7.02551181e-07
4.7295442e-07
3.65273034e-07
3.24332757e-07
3.25204897e-07
3.68338517e-07
4.56799207e-07
6.05251072e-07
8.37035312e-07
1.18341915e-06
1.68778128e-06
2.40696829e-06
3.39454523e-06
4.67886325e-06
6.24408691e-06
8.02794964e-06
9.88131882e-06
1.16013654e-05
1.3071056e-05
1.43585264e-05
1.62044145e-05
2.10788274e-05
2.89167663e-05
3.80244155e-05
4.80976835e-05
5.88914811e-05
7.01146247e-05
8.1554727e-05
9.30568039e-05
0.000104519846
0.000115880493
0.000127098833
0.000138147975
0.000149005869
0.000159651013
0.000170060909
0.000180212887
0.00019008637
0.000199685644
0.000208826542
0.000217364146
0.000225442191
0.000233101429
0.000240337782
0.000247140344
0.00025349968
0.000259408365
0.000264861128
0.000269854951
0.000274388973
0.000278464418
0.000282084488
0.000285254161
0.000287980026
0.000290270168
0.000292133859
0.000293581472
0.000294624089
0.000295273214
0.00029554014
0.000295435341
0.000294967872
0.000294145503
0.000292975665
0.000291467406
0.000289631997
0.0002874818
0.000285028701
0.000282282177
0.000279247503
0.000275924294
0.000272305007
0.000268375377
0.0002641162
0.000259501605
0.000254498324
0.000249059132
0.000243122697
0.000236595471
0.000229376374
0.000221312537
0.000212312104
0.000202172255
0.000190985705
0.000177982487
0.000169242963
0.00017177043
0.000177940786
0.000184531723
0.000188857916
0.000190647457
0.000190410115
0.0001894622
0.000187819447
0.000185065975
0.000180601633
0.000173867515
0.000163565796
0.000150660402
0.000136923193
0.000123639212
0.000111928769
0.00010334487
9.98222208e-05
0.000100943038
0.000107685234
0.000121274707
0.00013996342
0.000146437705
0.000108494357
6.72346482e-05
4.35031758e-05
3.69592278e-05
8.48989357e-05
7.94478474e-05
5.14176403e-05
2.66337003e-05
1.14573546e-05
4.65623547e-06
3.01944935e-06
2.08126113e-06
1.40537386e-06
1.08023183e-06
9.52655065e-07
9.47374032e-07
1.0640804e-06
1.30854097e-06
1.72113122e-06
2.36658053e-06
3.33323491e-06
4.74141679e-06
6.74944245e-06
9.5052268e-06
1.30749828e-05
1.7378668e-05
2.22009942e-05
2.70833632e-05
3.14007384e-05
3.48003323e-05
3.75701666e-05
4.19218079e-05
5.39399108e-05
7.32845393e-05
9.56812864e-05
0.000120216333
0.000146194587
0.000172847402
0.000199637535
0.000226196656
0.000252304807
0.000277840689
0.000302742131
0.000326978019
0.00035052811
0.000373372798
0.0003954896
0.000416853935
0.000437430907
0.000457117972
0.000475352777
0.000492444792
0.000508565153
0.000523769661
0.000538060225
0.000551430375
0.000563875607
0.000575394191
0.000585987453
0.000595659934
0.000604419237
0.000612275885
0.000619243157
0.000625336726
0.000630574415
0.000634975989
0.000638562668
0.000641356999
0.000643382209
0.000644661741
0.000645218165
0.000645072082
0.000644241039
0.000642739718
0.000640581677
0.000637783027
0.000634363691
0.00063034545
0.000625749084
0.000620590803
0.000614878959
0.000608611311
0.000601771965
0.000594331967
0.000586252457
0.000577481528
0.000567952133
0.000557570791
0.000546214195
0.000533697532
0.00051981139
0.000504248354
0.000486790036
0.000466999357
0.000444899436
0.000418557699
0.000400223688
0.000404853595
0.000417233964
0.000430405475
0.000439198616
0.000442922452
0.00044266137
0.000441124996
0.000438196358
0.000432835208
0.000423810395
0.000409892774
0.000388474627
0.00036136518
0.00033206814
0.000303268365
0.000277469283
0.000258292251
0.000250185191
0.000252420107
0.000266994554
0.000296043226
0.000335094877
0.000348062667
0.000263231664
0.000160283943
0.000100573019
8.35335182e-05
0.000158510179
0.000149076935
0.000100501492
5.47975891e-05
2.63001177e-05
1.17967905e-05
7.65885825e-06
5.32870913e-06
3.61151457e-06
2.76203726e-06
2.41739203e-06
2.38152968e-06
2.6484731e-06
3.22384636e-06
4.20195525e-06
5.7347179e-06
8.03209123e-06
1.13722338e-05
1.61170996e-05
2.25858965e-05
3.0859185e-05
4.06149501e-05
5.1212771e-05
6.14927e-05
7.0013313e-05
7.61636523e-05
8.11264025e-05
9.01224352e-05
0.000115000351
0.000154585912
0.000199913749
0.00024868773
0.000299283063
0.000350123624
0.000400214572
0.000448959541
0.000496070514
0.00054144444
0.00058507729
0.000627008101
0.000667283135
0.000705939414
0.00074300083
0.000778484317
0.000812384767
0.000843740037
0.000872920633
0.000900263431
0.000925962739
0.000950094545
0.000972678557
0.000993724704
0.00101324411
0.00103125029
0.00104775973
0.00106279225
0.00107637085
0.00108852163
0.00109927361
0.00110865827
0.00111670931
0.00112346233
0.00112895426
0.00113322321
0.00113630757
0.00113824542
0.001139073
0.00113882306
0.00113752326
0.00113519635
0.00113186278
0.00112754631
0.00112227618
0.00111608428
0.00110900095
0.00110104947
0.00109224117
0.00108257132
0.00107201404
0.00106052302
0.00104803604
0.00103447053
0.0010197193
0.00100363524
0.000986021713
0.00096658858
0.000944994847
0.000920753666
0.000893479601
0.000862449597
0.000827504546
0.00078503433
0.00075454723
0.000761253196
0.000781343016
0.000802822522
0.000817633703
0.000824518873
0.000825535565
0.000824708617
0.000821475104
0.00081394463
0.000800080674
0.000777736413
0.000742725932
0.000697848493
0.000648702109
0.000599745139
0.000555366444
0.000522202657
0.000508392118
0.000513014553
0.000539326151
0.000590210647
0.000656767362
0.000677999453
0.000530339128
0.000326173152
0.000199962605
0.000160270767
0.000264100414
0.000245973191
0.000170585347
9.70167357e-05
5.11918952e-05
2.62572768e-05
1.73713231e-05
1.22313198e-05
8.33165538e-06
6.33909897e-06
5.50106228e-06
5.36133142e-06
5.89182753e-06
7.08392424e-06
9.13057438e-06
1.23427719e-05
1.71513521e-05
2.41032248e-05
3.38852496e-05
4.70219517e-05
6.34274116e-05
8.21153392e-05
0.000101547413
0.000119409279
0.000133272723
0.000142767425
0.000151208167
0.000168392108
0.00021360862
0.000283736172
0.000362398907
0.000444902188
0.00052830038
0.000610153857
0.000689156316
0.000764688064
0.000836590984
0.000904945639
0.000969936499
0.0010317726
0.00109064277
0.00114669845
0.00120005344
0.00125080749
0.00129833472
0.00134213142
0.00138297229
0.00142121517
0.00145707296
0.00149064447
0.00152197389
0.00155109415
0.00157803775
0.00160283836
0.00162553191
0.00164615718
0.00166475584
0.00168137237
0.00169605402
0.00170885027
0.00171981257
0.00172899407
0.00173644885
0.0017422318
0.00174639758
0.00174899986
0.00175008931
0.00174971157
0.00174790497
0.00174470071
0.00174012626
0.00173421302
0.00172699944
0.00171852756
0.00170883722
0.00169795874
0.00168590631
0.00167267254
0.00165822109
0.00164248733
0.00162538439
0.0016067974
0.0015865765
0.00156451898
0.00154035073
0.00151367309
0.00148400354
0.00145067125
0.00141310189
0.00137026978
0.00132174188
0.00126197931
0.00121797287
0.0012263911
0.0012551875
0.00128629132
0.00130871227
0.0013207162
0.00132527079
0.00132737097
0.00132575534
0.0013175138
0.00129970222
0.00126911236
0.00121997318
0.00115616423
0.00108556103
0.00101461342
0.000949908348
0.000901720257
0.000882575579
0.000891500825
0.000932875001
0.00100974331
0.00110738221
0.0011370214
0.000921442829
0.000585612181
0.000357581617
0.000277110748
0.000410055382
0.000374927103
0.000263508332
0.000154017203
8.70715417e-05
5.18002572e-05
3.59289474e-05
2.57310354e-05
1.766473e-05
1.33754996e-05
1.14987247e-05
1.10690895e-05
1.19930103e-05
1.42086939e-05
1.80683157e-05
2.41358458e-05
3.31836831e-05
4.61306026e-05
6.40527367e-05
8.75465943e-05
0.000115905702
0.000146839444
0.000177460592
0.000204183477
0.000224033282
0.000237895758
0.000252447669
0.000283025333
0.000357121731
0.000467763186
0.000588418834
0.000711389029
0.000832553086
0.000949001637
0.00105950864
0.00116373392
0.00126186033
0.00135429211
0.00144149445
0.00152390735
0.00160190331
0.0016757761
0.00174574252
0.00181183911
0.00187280236
0.00192929528
0.00198204158
0.00203141126
0.0020776328
0.00212082863
0.00216106994
0.0021984152
0.00223292036
0.0022646411
0.00229363432
0.00231995909
0.00234367682
0.00236485134
0.00238354894
0.00239983774
0.0024137875
0.00242546934
0.00243495483
0.00244231592
0.00244762365
0.00245094736
0.00245235223
0.00245189685
0.00244963034
0.0024455924
0.00243981741
0.00243234412
0.00242321984
0.00241249633
0.00240022267
0.0023864359
0.00237115282
0.00235436336
0.00233602067
0.00231604171
0.00229431455
0.00227069172
0.00224497976
0.00221692062
0.00218616169
0.00215219701
0.00211439875
0.00207191559
0.00202397201
0.0019692366
0.00190692678
0.00182959642
0.00177143982
0.00178095974
0.00181907731
0.00186089782
0.00189273484
0.00191217734
0.00192285918
0.00193041121
0.00193266742
0.00192556912
0.00190521178
0.00186727833
0.00180458267
0.0017221282
0.00163014041
0.00153719312
0.00145225176
0.00138952282
0.00136609498
0.00138103148
0.00143941574
0.00154371534
0.00167274752
0.00171001094
0.00142966595
0.000948657327
0.000588423651
0.000446078447
0.000606335472
0.000543297549
0.000382814504
0.000226520666
0.000133892225
8.98863511e-05
6.82554518e-05
5.01975716e-05
3.49106582e-05
2.6345116e-05
2.24253542e-05
2.12898274e-05
2.26857011e-05
2.64172104e-05
3.30633232e-05
4.353596e-05
5.90496495e-05
8.09173202e-05
0.000110506708
0.000148096421
0.000191693569
0.000237140892
0.000280142748
0.000316305083
0.000343029772
0.00036346085
0.000388309604
0.000438668697
0.000549901567
0.000708685579
0.000876624463
0.0010433017
0.00120405977
0.00135609404
0.00149863032
0.00163182333
0.00175631269
0.00187288596
0.00198231908
0.00208529777
0.0021823856
0.0022740229
0.00236055473
0.00244136313
0.00251585804
0.00258513385
0.00264987316
0.00271045463
0.00276712187
0.00282002175
0.00286925346
0.00291490195
0.00295704752
0.00299576855
0.00303114351
0.00306325225
0.0030921763
0.00311799914
0.00314080624
0.0031606845
0.00317772206
0.00319200794
0.0032036311
0.00321268034
0.00321924282
0.00322340325
0.00322524103
0.00322482747
0.00322222233
0.00321747371
0.00321062275
0.0032017151
0.00319080636
0.00317795744
0.00316322606
0.00314665554
0.00312826489
0.00310804134
0.00308592771
0.00306182274
0.00303558962
0.00300704863
0.00297596266
0.00294201961
0.00290478905
0.00286366092
0.00281786172
0.00276636645
0.00270819234
0.00264170393
0.0025657012
0.00247110946
0.0023987125
0.00240847507
0.00245611174
0.00250968229
0.00255273468
0.00258190128
0.00260123931
0.0026166712
0.00262497614
0.00262085199
0.00259941415
0.00255526388
0.00248006068
0.00237992551
0.00226741498
0.00215329061
0.00204898143
0.0019726669
0.00194580512
0.00196756791
0.00204328095
0.00217424737
0.00233303679
0.00237723824
0.00203968222
0.00141415569
0.000902731697
0.000678774635
0.000861832121
0.000759218007
0.000533916275
0.000316115269
0.000191351644
0.000139056215
0.000117551505
9.11218891e-05
6.47626638e-05
4.88753506e-05
4.12100428e-05
3.85409816e-05
4.02954338e-05
4.60124974e-05
5.65533212e-05
7.32337578e-05
9.77274228e-05
0.000131608031
0.000176220891
0.000230944998
0.000291892275
0.000352887837
0.000408679061
0.000454904579
0.000490271239
0.000520744489
0.000561112259
0.0006378383
0.000792811506
0.00100403171
0.00122119357
0.00143209886
0.00163226281
0.00181943457
0.00199349989
0.0021551927
0.0023056332
0.0024459911
0.00257734349
0.00270061083
0.00281653805
0.00292570122
0.00302853526
0.00312356343
0.00321159933
0.00329366314
0.00337040427
0.00344220992
0.00350934039
0.00357196819
0.00363022129
0.00368421173
0.00373404472
0.00377982182
0.00382164342
0.00385961044
0.00389382467
0.00392438928
0.00395140895
0.00397498922
0.00399523639
0.00401225715
0.00402615747
0.00403704256
0.00404501519
0.0040501749
0.00405261476
0.00405241839
0.00404965582
0.00404438343
0.00403664875
0.00402650389
0.00401401201
0.00399924242
0.00398226073
0.00396311583
0.00394182852
0.00391838327
0.00389271285
0.0038646983
0.00383417853
0.00380094242
0.00376470981
0.0037251167
0.00368165684
0.00363362069
0.00358009138
0.00351987921
0.00345179334
0.00337394988
0.00328460966
0.00317345212
0.00308707853
0.00309609866
0.00315321449
0.00321936356
0.0032752125
0.00331617351
0.00334644155
0.00337189612
0.00338815847
0.00338862123
0.00336742665
0.0033181772
0.00323167392
0.00311510459
0.00298325499
0.00284906582
0.00272642932
0.0026373469
0.00260723308
0.00263546539
0.0027272985
0.00288261472
0.00306872982
0.00311991495
0.00273263309
0.00197364615
0.00130437441
0.000983537576
0.00118246074
0.00102964143
0.00072336346
0.00042556052
0.000259613935
0.000196603765
0.000182795644
0.000153528888
0.000112923033
8.57495026e-05
7.17607807e-05
6.61046435e-05
6.76983814e-05
7.56633373e-05
9.11610399e-05
0.000115878737
0.00015182272
0.000200510575
0.000262786277
0.00033655259
0.000415739943
0.000492492948
0.000561354753
0.000618837072
0.000665550911
0.000710354369
0.000771712198
0.000880665485
0.00108364393
0.00134851357
0.0016144423
0.0018684956
0.00210685852
0.00232806994
0.00253273363
0.00272215657
0.00289791099
0.00306151822
0.0032143302
0.00335748172
0.00349188446
0.00361823565
0.00373665999
0.00384586603
0.00394737394
0.00404215283
0.00413082923
0.00421380099
0.00429134777
0.00436366935
0.0044309232
0.00449324915
0.00455077788
0.00460363452
0.00465194174
0.00469582169
0.00473539651
0.00477078901
0.00480212292
0.00482952211
0.00485311073
0.00487301268
0.00488935036
0.0049022448
0.00491181361
0.00491817047
0.00492142133
0.00492166151
0.00491897087
0.00491341369
0.00490504357
0.00489391847
0.00488010835
0.00486368993
0.00484473582
0.00482329975
0.0047994037
0.00477302932
0.00474409979
0.00471247917
0.00467798309
0.00464037046
0.00459931925
0.00455441654
0.0045050834
0.0044505168
0.00438966074
0.00432123219
0.00424376169
0.00415511072
0.00405301291
0.00392629324
0.00382649425
0.00383388335
0.00390016939
0.00397944458
0.00404936577
0.00410388002
0.00414700613
0.0041842625
0.00421004428
0.00421641045
0.00419656104
0.00414322328
0.00404663836
0.00391497482
0.00376507296
0.00361197001
0.00347193697
0.00337049376
0.00333647466
0.00336962166
0.00347507508
0.0036514511
0.00386250758
0.00392176243
0.00349098466
0.00261554345
0.00179174865
0.00136426213
0.00157072528
0.0013591793
0.000957840326
0.000558752743
0.000339680797
0.000260774563
0.000257677024
0.000239035789
0.000184628046
0.000142322897
0.000118707562
0.000107862631
0.000108142695
0.000118188416
0.00013942826
0.000173762367
0.000223232488
0.000288838079
0.000370405316
0.00046398067
0.000561429337
0.000653866901
0.000736391318
0.000806980036
0.00086835731
0.000931999197
0.00101941315
0.00116520628
0.00141817984
0.00173569425
0.00204854217
0.00234387542
0.00261878859
0.00287267721
0.00310683021
0.00332307617
0.00352338944
0.00370960273
0.00388331248
0.00404584602
0.00419826894
0.00434144971
0.00447476203
0.00459799247
0.0047128073
0.00482013717
0.00492059558
0.0050145944
0.00510243574
0.00518434837
0.00526052021
0.00533111951
0.00539630302
0.00545621987
0.00551101527
0.00556083275
0.00560581476
0.00564610358
0.00568184172
0.00571317096
0.00574023279
0.00576316766
0.0057821137
0.00579720696
0.00580857894
0.00581635655
0.00582065768
0.00582158859
0.00581923828
0.00581367855
0.00580496856
0.00579317148
0.0057783632
0.0057606268
0.00574004086
0.00571666308
0.00569051599
0.00566157842
0.00562976441
0.00559492209
0.00555684521
0.00551526461
0.00546981819
0.00542004784
0.00536530605
0.00530471975
0.00523714247
0.00516109522
0.00507490363
0.00497618627
0.00486216227
0.00472116509
0.00460877977
0.00461379921
0.00468869974
0.00478133034
0.00486624654
0.00493570848
0.0049932309
0.00504367266
0.00508015983
0.00509342143
0.00507576862
0.00501920448
0.00491369173
0.00476826628
0.00460158773
0.00443063522
0.00427389036
0.00415996254
0.00412051187
0.0041559061
0.00427147679
0.00446516357
0.0046994993
0.0047691693
0.00430185094
0.00332776951
0.0023596041
0.00182088564
0.0020262894
0.00174988834
0.00124324725
0.00072054381
0.000433553801
0.000331529668
0.000334217375
0.000343146072
0.000282128509
0.000223094881
0.000186636153
0.000167849826
0.000164926365
0.000176283571
0.000203558793
0.000248583978
0.000312989611
0.000396734953
0.000498202606
0.000611481457
0.000726791268
0.000834942492
0.000932161751
0.0010181772
0.00109773553
0.00118447654
0.00130223254
0.00148810417
0.0017912458
0.00215904758
0.00251627294
0.00285067967
0.00316031925
0.00344540916
0.00370784725
0.0039499159
0.00417393673
0.0043820135
0.00457595815
0.00475727017
0.00492715042
0.00508660551
0.00523424152
0.00537122416
0.00549907181
0.00561868634
0.00573067728
0.00583547442
0.0059334055
0.00602473002
0.0061096672
0.00618841447
0.00626115517
0.00632806279
0.00638930529
0.00644504764
0.00649545245
0.00654068119
0.0065808947
0.00661625209
0.00664691152
0.0066730292
0.00669475808
0.00671224824
0.00672564398
0.00673508439
0.00674069814
0.00674260154
0.00674089188
0.00673564794
0.00672693389
0.00671481737
0.00669937931
0.00668070799
0.00665888683
0.00663397662
0.0066059998
0.00657493226
0.0065406796
0.00650307525
0.0064618928
0.00641683747
0.0063675094
0.00631340953
0.00625386864
0.00618791356
0.00611428212
0.00603135589
0.00593726777
0.00582941139
0.005704532
0.00555079369
0.00542693519
0.0054290331
0.00551179052
0.00561767895
0.00571813669
0.0058035461
0.0058765907
0.00594119347
0.00598918704
0.00601000393
0.00599513969
0.0059360398
0.00582263959
0.00566470756
0.00548243872
0.00529453222
0.00512142912
0.00499429482
0.00494702109
0.0049810197
0.00510252574
0.00530981
0.00556710123
0.00565099996
0.00515423381
0.00409879065
0.00300061695
0.00235050487
0.00254680548
0.00220165216
0.00158405958
0.00091648176
0.00054408656
0.000409725598
0.000408549204
0.00045330722
0.000402252292
0.000329703288
0.000278823049
0.000249527276
0.000240968259
0.000252245905
0.000285226143
0.000341341549
0.000421287283
0.000523494831
0.000644640126
0.000776997483
0.000909695301
0.00103385954
0.00114717506
0.00125114827
0.0013522786
0.00146585572
0.0016173249
0.00184524824
0.00219743603
0.002612444
0.00301120673
0.00338235176
0.00372482046
0.00403956637
0.00432900555
0.00459580445
0.00484257985
0.00507166982
0.0052850762
0.00548445328
0.00567111415
0.0058459504
0.00600756747
0.00615790787
0.00629839852
0.00642992357
0.00655309673
0.00666836968
0.00677609881
0.00687657595
0.00697005246
0.0070567556
0.00713689576
0.00721067104
0.00727827224
0.00733988573
0.00739569394
0.00744587713
0.00749061389
0.0075300799
0.00756444912
0.00759389263
0.00761857706
0.00763866545
0.00765431357
0.00766567155
0.00767287751
0.00767605682
0.00767531395
0.00767073411
0.00766238581
0.00765034035
0.00763468286
0.00761550554
0.00759289548
0.00756691565
0.00753758778
0.00750488472
0.00746870435
0.00742886686
0.00738512779
0.00733716962
0.00728455719
0.00722681113
0.00716315748
0.00709255766
0.00701366026
0.00692472784
0.00682371869
0.00670782556
0.00657338203
0.00640865786
0.00627468855
0.00627352089
0.00636322993
0.00648196309
0.0065981254
0.00670007097
0.00678933973
0.00686866763
0.0069285841
0.0069572849
0.00694553925
0.00688440558
0.00676400422
0.00659468407
0.00639785396
0.00619364928
0.00600413756
0.0058624229
0.00580409505
0.00583225592
0.00595520502
0.00617291385
0.00645478622
0.00655835002
0.00603868418
0.00491795367
0.00370643479
0.00294838087
0.00312858708
0.00271273149
0.00198302013
0.00115248478
0.000674570999
0.000491668445
0.000481002121
0.000556566709
0.000535811508
0.000459263986
0.000395828457
0.00035490912
0.000338339511
0.000347736642
0.000385470291
0.000452345152
0.00054763218
0.000667855676
0.000807889171
0.000958483742
0.00110821935
0.00124897692
0.00138000902
0.00150445356
0.00163021146
0.00177371692
0.00196136625
0.00223224464
0.00263149317
0.00309029025
0.00352764741
0.00393314862
0.00430650225
0.00464929185
0.00496436095
0.00525469515
0.00552315982
0.0057722953
0.00600427162
0.00622088538
0.0064235658
0.00661286176
0.00678795735
0.00695113498
0.00710376211
0.00724671525
0.00738061949
0.00750595222
0.00762310115
0.00773239186
0.00783410852
0.00792850872
0.00801583029
0.00809629597
0.0081701194
0.00823750808
0.00829866386
0.00835378512
0.00840306755
0.00844670238
0.00848487844
0.00851778055
0.00854558777
0.00856847493
0.00858660772
0.00860014614
0.00860923621
0.0086140113
0.00861458184
0.00861103878
0.0086034542
0.00859190224
0.00857647139
0.00855725651
0.00853434712
0.0085078075
0.00847765805
0.00844386849
0.00840632977
0.00836485053
0.00831917054
0.00826895362
0.00821379042
0.00815311349
0.00808611118
0.008011691
0.00792842657
0.00783448257
0.00772766558
0.00760499733
0.00746247695