/*--------------------------------*- C++ -*----------------------------------*\
| =========                 |                                                 |
| \\      /  F ield         | OpenFOAM: The Open Source CFD Toolbox           |
|  \\    /   O peration     | Version:  2212                                  |
|   \\  /    A nd           | Website:  www.openfoam.com                      |
|    \\/     M anipulation  |                                                 |
\*---------------------------------------------------------------------------*/
FoamFile
{
    version     2.0;
    format      ascii;
    arch        "LSB;label=32;scalar=64";
    class       volScalarField;
    location    "1880";
    object      omega;
}
// * * * * * * * * * * * * * * * * * * * * * * * * * * * * * * * * * * * * * //

dimensions      [0 0 -1 0 0 0 0];

internalField   nonuniform List<scalar> 
15600
(
7471.77263
7464.36521
7508.93558
7778.92704
8410.45158
8917.53569
8999.77676
8703.03677
8150.47004
7440.93912
6670.25188
5992.40147
5432.50938
4965.40324
4572.10327
4238.14181
3940.69839
3645.25258
3352.25172
3067.18213
2794.92119
2541.95887
2325.52865
2151.79857
2018.69987
1925.52275
1872.79817
1861.92702
1867.94255
1867.9429
1867.94335
1867.94388
1867.94444
1867.94501
1867.94557
1867.9461
1867.9466
1867.94706
1867.94749
1867.94787
1867.94821
1867.94852
1867.94878
1867.94901
1867.94919
1867.94934
1867.94946
1867.94953
1867.94958
1867.94958
1867.94956
1867.94951
1867.94943
1867.94933
1867.9492
1867.94906
1867.94889
1867.94871
1867.94851
1867.94831
1867.94809
1867.94787
1867.94764
1867.9474
1867.94717
1867.94694
1867.94671
1867.94648
1867.94625
1867.94603
1867.94581
1867.9456
1867.9454
1867.94521
1867.94502
1867.94484
1867.94467
1867.9445
1867.94435
1867.9442
1867.94406
1867.94393
1867.94381
1867.9437
1867.94359
1867.94349
1867.9434
1867.94331
1867.94323
1867.94316
1867.9431
1867.94306
1861.9277
1872.7989
1925.52349
2018.70062
2151.79929
2325.5293
2541.95942
2794.92163
3067.18244
3352.25202
3645.25319
3940.69949
4238.1436
4572.1059
4965.40689
5432.51431
5992.40809
6670.26092
7440.95233
8150.49037
8703.0683
8999.82668
8917.61343
8410.56235
7779.02584
7508.97976
7464.37331
7471.77287
1261.68308
1260.1096
1270.19965
1313.22767
1415.99054
1500.39949
1515.6955
1467.35779
1375.59423
1257.00447
1127.46231
1012.9227
918.155903
839.128323
772.596201
716.139428
665.994219
616.312429
567.006421
518.978512
473.057704
430.326352
393.677058
364.214208
341.652506
325.881751
317.024222
315.4866
316.439632
316.26249
316.252542
316.215257
316.167651
316.115581
316.065976
316.020343
315.979568
315.943024
315.909966
315.879416
315.850531
315.822615
315.79519
315.767926
315.740582
315.713025
315.68519
315.656808
315.623075
315.603964
315.585823
315.567269
315.548413
315.529375
315.510274
315.491225
315.472339
315.453721
315.435465
315.417663
315.400393
315.383725
315.36772
315.352429
315.337891
315.324139
315.311192
315.299069
315.287783
315.277354
315.267804
315.259151
315.251395
315.244521
315.238502
315.233308
315.22891
315.22529
315.222446
315.220403
315.219187
315.218849
315.219424
315.221043
315.223742
315.227893
315.233427
315.241306
315.250663
315.263421
315.273932
315.442024
314.859486
316.955539
325.897838
341.67082
364.202126
393.59666
430.153471
472.73261
518.474473
566.357616
615.530861
665.138948
715.306924
771.832251
838.426037
917.493716
1012.22047
1126.61325
1255.85208
1374.30365
1466.05627
1514.5923
1500.09791
1417.63108
1322.48804
1280.07173
1269.63849
1264.33417
418.140762
417.616652
424.390479
437.446747
467.836058
493.278298
498.378851
483.005266
453.210437
414.444841
371.926092
334.18198
302.908355
276.870862
254.95811
236.364958
219.85485
203.511315
187.260567
171.394435
156.20301
142.069224
129.952058
120.20801
112.770926
107.60409
104.883634
104.934647
105.530457
105.43879
105.416202
105.360487
105.286344
105.206536
105.129064
105.056627
104.99005
104.92853
104.870953
104.816013
104.762601
104.709854
104.657211
104.604313
104.550924
104.496919
104.442117
104.384462
104.331812
104.291086
104.250269
104.209264
104.1683
104.127602
104.087386
104.047857
104.009202
103.971596
103.935192
103.900128
103.866523
103.834478
103.804075
103.775378
103.748435
103.723277
103.699919
103.678372
103.658645
103.640753
103.624716
103.610541
103.598205
103.587665
103.578858
103.571719
103.56619
103.562236
103.559854
103.559082
103.559964
103.562589
103.567034
103.573514
103.582166
103.593565
103.607815
103.62628
103.648106
103.675646
103.701697
103.817465
103.762897
104.523549
107.467585
112.627786
120.005541
129.62855
141.578776
155.455846
170.384214
185.996283
202.042427
218.28376
234.851576
253.580394
275.627446
301.772252
333.030766
370.590063
412.681342
451.248198
481.031918
496.675718
492.442779
469.115367
448.293591
439.219195
433.0014
423.393547
197.404004
196.277856
201.816402
206.929897
217.234011
225.94817
227.82536
221.001074
207.556995
189.947638
170.58822
153.345106
139.035061
127.153469
117.160076
108.67235
101.115722
93.6295613
86.1602572
78.8402222
71.8213399
65.3094215
59.7358483
55.2796716
51.9094622
49.6400599
48.6721273
49.2376097
49.7889096
49.7350421
49.684505
49.594932
49.4815159
49.361704
49.2442953
49.1328744
49.0283032
48.9298109
48.8361775
48.7460527
48.6583063
48.5721085
48.4869428
48.4024982
48.3185601
48.2348976
48.1510512
48.0658073
47.9979888
47.9345641
47.8722656
47.8112303
47.7516832
47.6938387
47.6378914
47.5840169
47.5323669
47.4830736
47.4362445
47.3919678
47.3503105
47.3113199
47.2750244
47.2414348
47.2105447
47.1823342
47.1567716
47.1338244
47.1134644
47.0956756
47.0804486
47.0677574
47.0575423
47.0497217
47.044198
47.0408757
47.0396776
47.0405592
47.0435231
47.0486231
47.0559304
47.065568
47.0776708
47.0925318
47.1104132
47.1320571
47.1578106
47.1892923
47.2259401
47.2701952
47.3152253
47.4184551
47.4694279
47.8330957
49.1501737
51.4433715
54.7361039
59.0366102
64.3731751
70.5658433
77.247259
84.2200377
91.423584
98.776798
106.404324
115.067783
125.244962
137.278317
151.592623
168.612701
187.412092
204.650082
217.876026
224.661444
222.977637
215.183625
214.093217
216.723554
214.519776
204.588132
116.973925
114.761426
119.099512
121.267525
123.231228
124.705414
125.123801
121.459953
114.193322
104.59559
94.0326603
84.5994572
76.7589839
70.276522
64.8298257
60.1926719
56.0378249
51.9078959
47.7639751
43.6816059
39.7647508
36.1551125
33.081778
30.6535929
28.8697535
27.7836455
27.5662514
28.3255203
28.8175275
28.7421998
28.6270315
28.469802
28.290461
28.1093004
27.9356292
27.7731022
27.6221776
27.4817155
27.3501235
27.2257755
27.1073228
26.9937601
26.8844008
26.778755
26.6763804
26.5765602
26.4778787
26.393265
26.3200448
26.2508609
26.1845731
26.1212017
26.0607993
26.0034127
25.9490767
25.8978143
25.8496345
25.8045355
25.7625017
25.7235081
25.6875188
25.6544885
25.6243634
25.5970813
25.5725727
25.5507636
25.5315779
25.5149468
25.5008138
25.4891397
25.4798949
25.4730358
25.4684909
25.4661714
25.4659785
25.467821
25.4716309
25.4773775
25.4850818
25.494817
25.5066806
25.5208248
25.5374319
25.5568426
25.5794178
25.6059704
25.6370607
25.6743701
25.7177679
25.7696295
25.8247233
25.922461
25.9953057
26.1866514
26.8695707
28.0580385
29.7800114
32.0372849
34.8417337
38.1066352
41.608816
45.2768945
49.0952036
53.0432855
57.2356599
62.0312783
67.6535364
74.2750863
82.0893543
91.223651
101.064566
110.02207
116.719824
119.831676
118.669179
115.892236
120.927477
129.228411
131.851107
124.613878
81.0899933
78.2498453
81.5223517
82.5972809
80.2937641
77.5929287
76.9479884
74.6899501
70.311819
64.4711676
58.043787
52.2938351
47.5093779
43.5769833
40.2772152
37.4547581
34.8974943
32.3383867
29.7503273
27.1862958
24.7313682
22.4974518
20.6213696
19.1745646
18.1857308
17.7098283
17.8797678
18.6588464
19.0313165
18.8804575
18.6716976
18.4309863
18.1828001
17.9469287
17.7308512
17.5362056
17.3615963
17.2044327
17.061979
16.9317443
16.8116939
16.7002521
16.5962276
16.4986787
16.4067596
16.3190979
16.2411208
16.1772348
16.1202251
16.067117
16.0173007
15.9706215
15.9269574
15.8861994
15.8482462
15.813002
15.7803744
15.7502752
15.722617
15.697316
15.6742891
15.6534548
15.6347324
15.6180418
15.6033033
15.5904391
15.5793759
15.5700503
15.5624141
15.556436
15.5520942
15.5493575
15.5481745
15.548482
15.5502108
15.5532994
15.5577069
15.5634245
15.570487
15.5789729
15.5889841
15.6006709
15.6142203
15.6299541
15.6482437
15.6698294
15.6953337
15.7262585
15.7628171
15.8071186
15.8559194
15.9378895
16.0032124
16.1064838
16.4927147
17.1707016
18.1636185
19.4717192
21.1044198
22.9858246
24.99966
27.1177314
29.3380559
31.6637492
34.1910521
37.1031748
40.5125771
44.5125149
49.1902143
54.5431099
60.1166992
65.0897354
68.628231
69.9642903
68.963773
67.9223883
73.9181203
84.1689518
90.6526938
87.4606776
61.6197722
59.0381015
61.7526022
62.8095323
58.4169677
52.6822498
51.0525671
49.4606341
46.6292346
42.8154115
38.6236875
34.8715334
31.7483388
29.2009209
27.0654924
25.2237593
23.5264261
21.8098233
20.0575208
18.3144978
16.6579467
15.1820294
13.9753536
13.0899727
12.5635128
12.4432074
12.7999541
13.4830284
13.693724
13.4459387
13.1523822
12.8540309
12.5735142
12.3244471
12.1087785
11.9238479
11.7652031
11.6282155
11.5087874
11.4035275
11.3097726
11.225482
11.1490963
11.0793935
11.0154766
10.9575593
10.9120153
10.8738558
10.8398481
10.8086089
10.7797387
10.7530478
10.7283806
10.7056041
10.6846012
10.6652677
10.64751
10.6312433
10.6163897
10.6028777
10.5906406
10.579616
10.5697444
10.5609688
10.5532346
10.5464896
10.5406866
10.5357867
10.5317636
10.5286037
10.5263008
10.5248411
10.5241965
10.5243301
10.5252008
10.5267725
10.5290244
10.5319595
10.5356129
10.5400513
10.5453601
10.5516622
10.5591147
10.5679785
10.5785699
10.5914792
10.6072625
10.6271149
10.6513905
10.6817904
10.7166207
10.7776814
10.8272613
10.8842733
11.1195583
11.539929
12.1615977
12.985865
14.0071028
15.1698207
16.4146458
17.7267081
19.107508
20.5666989
22.1775629
24.0398907
26.2138131
28.7519269
31.6919925
34.98448
38.2923377
41.1672813
43.101946
43.6592728
42.9078457
42.5391264
47.5059874
57.1471506
65.4031483
65.7503424
48.6904054
47.0082151
49.7406112
51.5060239
46.6363656
38.4995719
35.8003187
34.4896475
32.5593322
29.95079
27.0915935
24.5344524
22.4077477
20.6889515
19.2475422
17.9871131
16.79754
15.5773335
14.3203726
13.0704013
11.9004413
10.8907638
10.1011494
9.57021855
9.3316702
9.41344812
9.82167351
10.3486496
10.4001405
10.0797546
9.74750863
9.4432275
9.17958796
8.96014517
8.78019052
8.63305879
8.51212194
8.4116995
8.32724718
8.25524774
8.19305074
8.1386789
8.0906463
8.04778638
8.00919632
7.97970665
7.95655061
7.93723741
7.92019398
7.90471776
7.89055782
7.8775716
7.86564433
7.85468055
7.84459909
7.83533018
7.82681303
7.81899465
7.81182757
7.80526973
7.79928281
7.79383139
7.78888248
7.78440446
7.78036715
7.77674217
7.77350437
7.77063498
7.76812409
7.765971
7.76417943
7.76274679
7.76165947
7.76089702
7.76043534
7.76025374
7.76034239
7.76070887
7.76138397
7.76242114
7.76388816
7.76588094
7.76852548
7.77202728
7.77664427
7.7828355
7.79106792
7.8022682
7.81682435
7.83607566
7.85930449
7.90367593
7.94021
7.97273068
8.12587139
8.40699693
8.82732676
9.38385212
10.0654019
10.8354457
11.6597194
12.5290652
13.4450962
14.4176181
15.499585
16.748469
18.1976311
19.87716
21.8019321
23.9144344
25.973059
27.722188
28.855406
29.1250308
28.6397292
28.5575253
32.1506003
40.0131838
48.178069
50.6362492
38.9077197
38.2563054
41.3267439
44.1759969
40.0574385
30.2356066
26.2610292
24.9838389
23.5976504
21.7559006
19.7489454
17.9593734
16.4747983
15.2871666
14.2875454
13.3943619
12.5249951
11.618538
10.6788407
9.75102891
8.90390074
8.20422628
7.69169082
7.39270788
7.32965971
7.50713529
7.88402961
8.24890064
8.18291276
7.83938982
7.51936864
7.24996402
7.03157764
6.85925015
6.72416819
6.61805103
6.53395784
6.46648125
6.41154456
6.36612438
6.32800958
6.29558896
6.26767637
6.24332566
6.22383432
6.21033406
6.20012786
6.19187497
6.18474944
6.17837134
6.17258837
6.16730917
6.16246224
6.15799006
6.15384548
6.14998936
6.14638891
6.14301662
6.13984871
6.13686483
6.13404691
6.13137845
6.12884417
6.12642923
6.12411937
6.1219012
6.11976356
6.11769988
6.11571008
6.11380059
6.11198034
6.11025265
6.10861199
6.10704744
6.10554506
6.10409326
6.10268877
6.10134186
6.1000803
6.09894876
6.09800347
6.09732306
6.09701292
6.09724229
6.09822924
6.10034495
6.10399069
6.10990928
6.11849985
6.13085666
6.14687336
6.18043717
6.20857516
6.22794812
6.3332136
6.53349311
6.83496031
7.23250264
7.71576468
8.25863802
8.83975948
9.45284094
10.0989875
10.7866193
11.5538455
12.4357051
13.4512283
14.6176794
15.9392964
17.3642036
18.7215406
19.8584571
20.5865854
20.7594211
20.4706692
20.5061711
23.000878
28.9715802
36.0601264
39.3048887
31.2022206
31.3551917
34.7685746
38.7316141
36.0843085
25.6506274
20.1022357
18.6597531
17.5909351
16.2564981
14.8221131
13.551664
12.5030421
11.672984
10.9677123
10.317303
9.66045467
8.96450921
8.2424251
7.54057942
6.9215263
6.43796106
6.11403327
5.96474105
5.99945309
6.20370225
6.51328777
6.74483918
6.61481711
6.29100451
6.01319547
5.79391775
5.62493423
5.49698256
5.40023436
5.32674614
5.27039176
5.22664176
5.19219592
5.16466891
5.14235007
5.12401548
5.10879304
5.09622391
5.08822242
5.08340497
5.08029623
5.07812673
5.07643212
5.07499493
5.07372244
5.07255883
5.07146223
5.07040064
5.0693492
5.06828857
5.06720368
5.06608293
5.06491707
5.06369898
5.06242277
5.06108325
5.05967568
5.05819518
5.05663695
5.05499657
5.05327118
5.05146141
5.04957285
5.04761575
5.04560167
5.04353707
5.04142117
5.03924891
5.03701284
5.03470732
5.0323336
5.02990415
5.02744539
5.02499697
5.02260854
5.02034866
5.01831044
5.01664111
5.01553383
5.0153039
5.01630913
5.01917237
5.02430136
5.03263464
5.04447166
5.07122849
5.09421726
5.10655477
5.18229787
5.33139531
5.55734275
5.85515788
6.21532202
6.6183954
7.05011797
7.50587099
7.98632817
8.49848185
9.07030806
9.72448551
10.4722469
11.3235969
12.2779387
13.2918964
14.2433462
15.0356201
15.5478707
15.6866761
15.5210554
15.5967985
17.3343288
21.749172
27.5075713
30.7404574
25.1640338
25.7946965
29.3655831
34.2230148
33.3589984
23.3742025
16.1301568
14.3362453
13.4189217
12.4210699
11.3821506
10.4749258
9.73307096
9.15185479
8.64898286
8.16485763
7.65581454
7.10959582
6.54651262
6.0122791
5.5608034
5.23091984
5.03486191
4.97818757
5.05957304
5.25343367
5.49152279
5.62881159
5.47718688
5.19542069
4.96795727
4.79676379
4.66974735
4.57666257
4.50841468
4.45819384
4.42097882
4.39316531
4.37217776
4.35618339
4.34388485
4.33436601
4.32696497
4.32213328
4.32038317
4.32034778
4.32115738
4.32234389
4.32363037
4.32488585
4.32605299
4.32709831
4.32799837
4.32873682
4.32930238
4.32968764
4.3298881
4.32990164
4.32972764
4.3293668
4.32882046
4.32809013
4.3271774
4.32608341
4.32480912
4.3233556
4.32172516
4.31992286
4.31795771
4.31584214
4.31358908
4.31120682
4.30869758
4.30606028
4.30329197
4.30039125
4.29736272
4.29422083
4.29099157
4.28771175
4.28442724
4.2812006
4.27811731
4.27531085
4.27295809
4.27133746
4.27077661
4.27181739
4.27487383
4.28078127
4.29012526
4.31232329
4.33197271
4.34069256
4.39692471
4.51163129
4.68705069
4.91863961
5.1978549
5.50972426
5.84416169
6.19761965
6.57049459
6.96860868
7.4130524
7.91938217
8.49451967
9.14436886
9.8662847
10.6248293
11.330754
11.9191448
12.3079702
12.4322273
12.3391614
12.4206017
13.6524529
16.9134973
21.4514168
24.3313096
20.494419
21.3357291
24.8380897
30.2508758
31.1517955
22.4825772
13.7539546
11.3642128
10.4611747
9.67466107
8.90901303
8.25965201
7.73798014
7.33342531
6.97291303
6.60652366
6.20544423
5.77200122
5.33125376
4.92573396
4.59932623
4.37870756
4.26774042
4.2652661
4.36302242
4.53149038
4.70882337
4.78571046
4.63756604
4.40326017
4.2223153
4.09088409
3.99625225
3.92885334
3.88091218
3.84685145
3.82266052
3.8055093
3.7933981
3.78491803
3.77908153
3.77520215
3.77278899
3.77285242
3.77466368
3.7773651
3.78041424
3.78351233
3.78648592
3.78925289
3.79177735
3.79403981
3.79602828
3.79773604
3.79916013
3.80030037
3.80115873
3.80173887
3.80204544
3.80208395
3.8018602
3.80137996
3.80064878
3.79967169
3.7984534
3.79699863
3.7953131
3.79340483
3.79128508
3.78896763
3.78646626
3.78379043
3.78094445
3.77793016
3.77474797
3.7713997
3.76789253
3.76424269
3.76047616
3.75662806
3.75274186
3.74887628
3.74511155
3.74157193
3.73842269
3.73591624
3.73435731
3.73422967
3.73595032
3.74027491
3.74798945
3.76686191
3.78411785
3.79095298
3.83384278
3.92441155
4.06442122
4.2498596
4.47314816
4.72243819
4.99024109
5.27373889
5.57316546
5.89342937
6.25085017
6.65667979
7.11540966
7.63061308
8.19893486
8.79156068
9.34164595
9.80294064
10.1161772
10.2320297
10.1806038
10.2529516
11.1498541
13.5803649
17.1188754
19.5611282
16.9067189
17.7926175
21.0512941
26.6697427
29.1001931
22.2986272
12.577184
9.36605137
8.35573445
7.68032729
7.09633626
6.62818119
6.26486667
5.98669452
5.72807761
5.44799261
5.12971482
4.78526568
4.44157952
4.13607706
3.9028464
3.75910969
3.70347577
3.73064542
3.82882964
3.96923702
4.10011352
4.14063416
4.00750278
3.81724019
3.67506875
3.5746651
3.50426621
3.45555266
3.42208805
3.39936999
3.38420653
3.37436811
3.36829001
3.36487756
3.36336958
3.36324994
3.36435615
3.36734456
3.37129922
3.37565224
3.38004911
3.38429155
3.38826671
3.39192161
3.39523398
3.39819336
3.40079512
3.40303869
3.40492642
3.40646275
3.40765381
3.40850698
3.40903036
3.40923264
3.40912262
3.40870893
3.40799989
3.40700323
3.40572635
3.40417657
3.40236211
3.4002931
3.39798246
3.39544498
3.39269499
3.38974285
3.38659445
3.38325392
3.37972436
3.37601012
3.37212042
3.36807308
3.36389429
3.35961797
3.35528598
3.3509543
3.34669903
3.3426379
3.33892705
3.33579929
3.33354051
3.33259047
3.33335839
3.33654426
3.34305576
3.35930783
3.37466329
3.38049906
3.41401919
3.48706305
3.60131248
3.7532964
3.93633553
4.14084803
4.36104283
4.59461877
4.8417211
5.10654897
5.40203091
5.73669507
6.11363841
6.53510345
6.99766851
7.47787768
7.92450392
8.30267575
8.56672451
8.67616001
8.64776694
8.70509812
9.37645154
11.2106085
13.9698465
15.9986118
14.1446319
14.9903664
17.9074303
23.4377825
27.0490837
22.297715
12.3574442
8.1077483
6.87878348
6.2310267
5.75569649
5.4092484
5.15754352
4.96925072
4.78450215
4.56979493
4.31747396
4.04509058
3.77906828
3.5509619
3.38648291
3.29617167
3.27570317
3.3176082
3.40898576
3.52405969
3.62118249
3.6407246
3.52625648
3.37357234
3.26239415
3.18580043
3.13353002
3.098564
3.07562862
3.06108967
3.0523917
3.0477611
3.04595872
3.04612253
3.04765626
3.05013993
3.05378473
3.0586418
3.06397524
3.06939499
3.07466067
3.07963666
3.08424744
3.08845844
3.09225647
3.09563721
3.09860101
3.10115148
3.10329455
3.10503786
3.10639039
3.10736214
3.10796368
3.10820598
3.10810007
3.10765671
3.10688632
3.10579874
3.10440344
3.10270979
3.10072796
3.09846976
3.0959495
3.09318274
3.09018436
3.08696543
3.08353315
3.07989356
3.07605201
3.07201491
3.06779314
3.06340596
3.0588798
3.05424775
3.04955034
3.04484144
3.04019361
3.03571966
3.03156805
3.02795748
3.02515694
3.02356381
3.02358006
3.02585976
3.03137213
3.04542341
3.05913951
3.0644239
3.0912236
3.15120182
3.24613976
3.37308424
3.52617318
3.69752263
3.88249876
4.07917788
4.28766411
4.51160337
4.76145395
5.04394681
5.36136969
5.71521127
6.10229333
6.50348313
6.87871289
7.20022726
7.4305206
7.53410428
7.51721259
7.55742889
8.06972326
9.47421945
11.6375933
13.3110663
12.0007592
12.771276
15.3144377
20.5452114
24.9529
22.1656995
12.8261457
7.43823054
5.88207544
5.19191949
4.76573207
4.49288369
4.3158302
4.18990075
4.05892145
3.89487985
3.69608906
3.48235731
3.27809871
3.1092538
2.99498583
2.94140289
2.94276483
2.99075796
3.07280717
3.16687544
3.24000646
3.24795119
3.15200909
3.03023804
2.94352636
2.88526535
2.84675124
2.82212832
2.807075
2.79863981
2.79475744
2.79400066
2.79537585
2.79819556
2.80198843
2.806413
2.81190318
2.81804648
2.82434031
2.83050971
2.83638697
2.84187723
2.84692916
2.85152044
2.8556443
2.85930087
2.86249408
2.86523059
2.86751896
2.86936922
2.87079252
2.87180088
2.87240678
2.87262307
2.87246256
2.87193778
2.87106092
2.86984356
2.86829697
2.86643221
2.86426115
2.86179703
2.85905538
2.85605253
2.85280386
2.84932118
2.84561273
2.84168629
2.83754918
2.8332095
2.82867949
2.82397978
2.81913706
2.81418369
2.80915913
2.80411549
2.799122
2.7942877
2.78975942
2.78573601
2.78246951
2.78032427
2.77969175
2.78118548
2.78579129
2.79790539
2.81012621
2.81507321
2.83696632
2.88699632
2.96710282
3.07481275
3.2049977
3.35107962
3.50924331
3.67784894
3.85699161
4.04988448
4.26514704
4.5082792
4.78109865
5.08468226
5.41624406
5.76016716
6.08452808
6.36604019
6.57199816
6.66971374
6.6567955
6.67936291
7.07545849
8.166378
9.87605669
11.2557611
10.3176728
11.0037333
13.1834082
17.9843683
22.8281386
21.7845275
13.6635255
7.26832528
5.26327262
4.46939973
4.04385479
3.80520397
3.67280358
3.58778605
3.49548986
3.37096657
3.21563436
3.04925404
2.89354794
2.76960723
2.69172483
2.6631719
2.67770813
2.72698812
2.79948399
2.87680835
2.93301227
2.93498244
2.85592302
2.75925514
2.69190469
2.64794808
2.62009515
2.60346942
2.59451215
2.59080567
2.59066349
2.59292418
2.59678176
2.60168196
2.60725232
2.61327155
2.62009666
2.62720101
2.63422712
2.64097696
2.64733104
2.65322209
2.65861517
2.66349662
2.66786446
2.67172226
2.67507677
2.67793704
2.68031375
2.68221886
2.68366536
2.68466696
2.68523782
2.68539243
2.68514517
2.68451021
2.6835013
2.68213165
2.68041412
2.67836133
2.67598668
2.67330471
2.67033214
2.66708606
2.66358245
2.65983382
2.65584936
2.65163843
2.64721014
2.64257408
2.63774353
2.63274048
2.62759191
2.62232953
2.6169918
2.6116294
2.60630816
2.60114304
2.59626302
2.59185413
2.58815433
2.58549935
2.58426727
2.58503402
2.58876987
2.59912258
2.60993306
2.61462919
2.63288252
2.67520809
2.74369821
2.83631548
2.94858585
3.07495827
3.21221623
3.35894038
3.51524078
3.68399245
3.87242072
4.08515339
4.32373902
4.58905193
4.87876914
5.18016386
5.46733447
5.71971492
5.90725849
5.99882239
5.98456115
5.98955776
6.29858962
7.15699054
8.51993424
9.66032637
8.97963811
9.58379793
11.4328151
15.740376
20.7267654
21.134845
14.6058053
7.53714577
4.95488721
3.99638821
3.5310714
3.29424622
3.18184287
3.12051165
3.05500538
2.96096848
2.84050845
2.71185905
2.59388841
2.5037079
2.45205618
2.44042098
2.46258318
2.5106209
2.57432881
2.6385487
2.6828361
2.68220239
2.61797416
2.541682
2.4898102
2.45721997
2.4378322
2.42757412
2.4234946
2.42359473
2.42648355
2.43120624
2.43710246
2.44372066
2.45076255
2.45813354
2.46600775
2.47389465
2.48153315
2.48877843
2.49554418
2.50178254
2.50747018
2.51259992
2.51717362
2.52119768
2.52468124
2.52763538
2.53007265
2.53200675
2.53345229
2.53442458
2.53493937
2.53501267
2.53466041
2.53389829
2.53274161
2.5312051
2.52930321
2.52705
2.52446035
2.52155001
2.51833696
2.51483905
2.51107295
2.50705195
2.50278603
2.49828614
2.49356305
2.48862763
2.48349398
2.4781855
2.47272944
2.4671569
2.46150544
2.4558247
2.4501881
2.44469352
2.43946444
2.43467526
2.43055046
2.42740049
2.42558779
2.42565241
2.42852688
2.43724237
2.44669737
2.4511597
2.46667105
2.50294556
2.56219009
2.64275553
2.74074889
2.85144211
2.97207021
3.10139198
3.23955237
3.38916435
3.55637919
3.74518751
3.95699007
4.19259171
4.45016462
4.71937534
4.97878638
5.20936779
5.38101414
5.46224558
5.44760512
5.43518349
5.67799367
6.36120797
7.45711264
8.40330834
7.90252052
8.43193144
9.99177352
13.7907641
18.7067111
20.2463993
15.4219853
8.21031295
4.92196589
3.72700208
3.18482342
2.92301073
2.80947099
2.75753134
2.70899015
2.63779998
2.54481201
2.44581701
2.35690462
2.29197201
2.25915859
2.25884278
2.28510796
2.3306806
2.38670815
2.44076118
2.47668545
2.47548368
2.42409682
2.36444905
2.32513066
2.30176012
2.28926756
2.28423365
2.28419188
2.28747437
2.29292327
2.29974657
2.30739872
2.31550829
2.32382261
2.33239019
2.34115661
2.34973377
2.35792826
2.36563328
2.37278615
2.37935313
2.38531957
2.3906834
2.39544975
2.39962756
2.40322808
2.40626429
2.40875051
2.41070206
2.41213518
2.41306675
2.41351407
2.41349472
2.41302617
2.41212566
2.41081007
2.40909564
2.40699841
2.40453386
2.40171835
2.3985688
2.39510453
2.39134421
2.38730527
2.38300189
2.37844476
2.37364636
2.36861913
2.36337507
2.35792884
2.35230536
2.34653215
2.34063972
2.33466742
2.32866862
2.32270623
2.31687236
2.31128487
2.30610753
2.3015518
2.29790541
2.29551349
2.2948813
2.29688916
2.30405975
2.31219859
2.31640717
2.3298195
2.36128439
2.4130716
2.48387221
2.57030721
2.66831854
2.77549203
2.8907376
3.01425348
3.1484527
3.29864711
3.46834794
3.65888281
3.8710753
4.10360289
4.34811629
4.58634656
4.79417737
4.94311064
5.01246075
5.00509787
4.98070318
5.1729484
5.7221889
6.61046981
7.39883934
7.02510245
7.48813617
8.80099128
12.1081908
16.8164568
19.1683734
15.9689124
9.12933587
5.15418517
3.6352657
2.97611657
2.66510122
2.53155389
2.47654404
2.43643502
2.38143788
2.309565
2.23355406
2.16684474
2.12071573
2.1013751
2.10851833
2.13667008
2.17928997
2.22878975
2.27499663
2.30510185
2.30457247
2.26426976
2.21835858
2.18939093
2.17366241
2.16693301
2.16631364
2.16972626
2.17576689
2.1834637
2.1921547
2.20138626
2.21085155
2.22033404
2.22998274
2.23956086
2.24878814
2.25752053
2.26567912
2.27321868
2.28011612
2.28636362
2.29196336
2.29692344
2.30125517
2.30497185
2.30808832
2.31062061
2.31258574
2.31400158
2.31488665
2.31525984
2.31514037
2.31454731
2.31349952
2.31201551
2.31011306
2.30780987
2.30512282
2.30206983
2.29866892
2.29494093
2.29090535
2.28658051
2.28198159
2.27711986
2.27200943
2.26666439
2.26109774
2.25532443
2.24937111
2.24326558
2.23704287
2.23074189
2.22440835
2.21810311
2.21191304
2.20595039
2.20036905
2.19536781
2.19121376
2.18823353
2.18689841
2.18802796
2.19372515
2.20057889
2.2044952
2.2162719
2.24387332
2.28957786
2.35236918
2.42932122
2.51692865
2.61305808
2.71675527
2.82829007
2.94992669
3.0863116
3.24058467
3.41404688
3.60760061
3.82042293
4.04567259
4.26193039
4.44180024
4.56541889
4.62499733
4.6272736
4.60177743
4.75551449
5.20087012
5.92607721
6.58563802
6.30250818
6.70730558
7.81209831
10.6628687
15.0908828
17.9618144
16.1923664
10.1357735
5.63518545
3.7145758
2.8886838
2.50245874
2.33125949
2.26149351
2.22191519
2.17710512
2.12086182
2.06236196
2.01247152
1.98027432
1.97050348
1.98243839
2.01109911
2.05068244
2.09472845
2.13491286
2.16104523
2.16194953
2.13124559
2.0968144
2.0765336
2.06727994
2.06549151
2.06871025
2.07517145
2.08368347
2.09342449
2.10383763
2.11454388
2.12529078
2.135912
2.14654656
2.15690279
2.16677251
2.17604827
2.1846723
2.19261259
2.19985449
2.20639578
2.21224244
2.21740535
2.22189816
2.22573625
2.22893633
2.23151623
2.23349474
2.23489146
2.2357266
2.23602081
2.23579502
2.23507001
2.23386635
2.23220427
2.23010316
2.2275825
2.22466053
2.22135688
2.2176906
2.21368424
2.20935814
2.20473163
2.1998211
2.19463821
2.18919882
2.18351874
2.17761188
2.17149313
2.16519114
2.1587421
2.15217508
2.14552479
2.13883548
2.13216586
2.12559804
2.11923868
2.11323233
2.10776559
2.10308648
2.09950238
2.0974514
2.09768811
2.10196905
2.10756398
2.11114141
2.12161743
2.14608488
2.18678007
2.24293326
2.31201575
2.39098333
2.47793457
2.57204526
2.67367588
2.78498375
2.9100795
3.051806
3.21146589
3.39008191
3.5872176
3.79347605
3.98338348
4.1364874
4.24095213
4.29267167
4.30061626
4.28184324
4.40603741
4.76975973
5.36557149
5.91942498
5.70148747
6.05541638
6.98622492
9.42479499
13.5362505
16.687192
16.0940223
11.1456861
6.2947115
3.96774051
2.91891136
2.42564056
2.19796781
2.10139211
2.05440702
2.01404836
1.96857558
1.92304933
1.88572352
1.86375115
1.8606902
1.87556475
1.90389329
1.94056958
1.98011468
2.0157129
2.03923193
2.04203942
2.0197071
1.99500502
1.98214887
1.97850181
1.98105462
1.98770091
1.99693037
2.00772364
2.01938113
2.03143178
2.04355772
2.05555185
2.06729767
2.07887796
2.09000908
2.10053409
2.11037344
2.11948576
2.1278495
2.13545689
2.1423106
2.14842014
2.15379915
2.15846366
2.16243122
2.16572048
2.16835121
2.17034408
2.17172056
2.17250271
2.17271304
2.17237434
2.17150924
2.17014012
2.16828906
2.16597714
2.16322577
2.16005454
2.15648496
2.15253702
2.14823524
2.1436008
2.13865414
2.13341312
2.12788957
2.12210126
2.11606583
2.10979803
2.10331216
2.09665113
2.08983891
2.08290426
2.0758809
2.06881159
2.06175288
2.05478249
2.04800155
2.04154579
2.03558995
2.03036433
2.02615668
2.02337279
2.02270119
2.02561247
2.02997182
2.03316154
2.04257875
2.06447963
2.10101435
2.15161613
2.21410309
2.28581946
2.36506227
2.4511397
2.54452288
2.64729565
2.76312809
2.89461577
3.04308019
3.20962824
3.3916134
3.57582867
3.74074794
3.87309605
3.96318582
4.0084438
4.01918542
4.00940416
4.11034188
4.40907627
4.90119098
5.36776679
5.19710435
5.50662302
6.29239107
8.36605536
12.1300756
15.4008273
15.7298747
12.0093001
7.11608077
4.3717076
3.07339338
2.43373936
2.12682492
1.98963585
1.92651691
1.88468956
1.84544006
1.808997
1.78080168
1.76618672
1.76771034
1.78422615
1.81172144
1.84572357
1.8815924
1.91374158
1.93566313
1.9406646
1.92570359
1.90937052
1.90297807
1.9042896
1.91074617
1.92052954
1.93233735
1.94529115
1.95879177
1.97243889
1.98596493
1.99919892
2.01207244
2.024593
2.0365156
2.04772191
2.05815419
2.06778423
2.07659898
2.08459662
2.09178428
2.09817489
2.10378489
2.10863284
2.11273854
2.11612278
2.1188074
2.12081513
2.12216945
2.12289447
2.1230147
2.12255496
2.12153988
2.11999377
2.11794078
2.11540367
2.11240604
2.10896876
2.10511551
2.100867
2.09625014
2.09128682
2.08599876
2.08040563
2.07451902
2.06835895
2.06194503
2.05529366
2.04843037
2.04138556
2.03418484
2.02685673
2.01943397
2.01195794
2.00448299
1.99708278
1.989853
1.98292096
1.97644996
1.97065363
1.96580005
1.96226367
1.9606682
1.96224835
1.96539304
1.96814723
1.97667928
1.99645766
2.02951022
2.07543258
2.13234377
2.1979181
2.27062939
2.34992813
2.43641687
2.53213046
2.6403652
2.76350172
2.90283807
3.05756814
3.22249942
3.38541972
3.53050498
3.6467603
3.72567422
3.7655421
3.77718498
3.7760165
3.85793159
4.10428986
4.51251028
4.90657412
4.77042409
5.04111309
5.70598918
7.4615273
10.8521046
14.1464669
15.1688514
12.5993614
8.01769013
4.88210301
3.34533205
2.53431029
2.11891294
1.92374363
1.83403004
1.78406555
1.74642177
1.71551296
1.69355503
1.68400885
1.68849679
1.70572507
1.73209644
1.76369618
1.79659193
1.82619769
1.84729151
1.85466855
1.84627105
1.83724947
1.83658763
1.84237406
1.85241689