/*--------------------------------*- C++ -*----------------------------------*\
| =========                 |                                                 |
| \\      /  F ield         | OpenFOAM: The Open Source CFD Toolbox           |
|  \\    /   O peration     | Version:  2212                                  |
|   \\  /    A nd           | Website:  www.openfoam.com                      |
|    \\/     M anipulation  |                                                 |
\*---------------------------------------------------------------------------*/
FoamFile
{
    version     2.0;
    format      ascii;
    arch        "LSB;label=32;scalar=64";
    class       volScalarField;
    location    "1880";
    object      p;
}
// * * * * * * * * * * * * * * * * * * * * * * * * * * * * * * * * * * * * * //

dimensions      [0 2 -2 0 0 0 0];

internalField   nonuniform List<scalar> 
15600
(
-8.65279481e-10
0.0108861137
0.0146322758
0.0312245096
0.043512939
0.0511140886
0.0544847255
0.0573779053
0.0593764071
0.0610664728
0.0622648873
0.0632315273
0.0640321754
0.0647162599
0.0653390368
0.0659365056
0.0665606296
0.0672079734
0.0678908285
0.0685955833
0.0692969824
0.0699383847
0.0705094277
0.0710031745
0.0714024874
0.071688384
0.0719225949
0.0717564573
0.0716574162
0.071837359
0.072192255
0.0728409031
0.0737738459
0.0750016044
0.0765079071
0.0782771473
0.0802891362
0.0825250241
0.0849665942
0.0875973447
0.0904020848
0.093366835
0.0964784872
0.0997246438
0.103093496
0.106573666
0.11015415
0.113824256
0.117573515
0.121391666
0.125268717
0.129194974
0.13316107
0.137157967
0.141177003
0.145209903
0.149248815
0.15328632
0.157315467
0.161329767
0.165323216
0.169290291
0.173225952
0.177125635
0.180985244
0.184801131
0.188570085
0.192289295
0.195956324
0.199569068
0.203125734
0.206624841
0.210065245
0.21344612
0.216766946
0.220027466
0.223227633
0.226367563
0.229447487
0.232467695
0.235428591
0.238330607
0.241174386
0.243960426
0.246689799
0.249362719
0.251981351
0.254544651
0.257058025
0.259517189
0.26193075
0.264308084
0.266588563
0.268852781
0.271136439
0.273561956
0.276092372
0.27875464
0.281500113
0.284303822
0.287001332
0.289410796
0.291250779
0.292276342
0.292163712
0.29092994
0.288489372
0.28457031
0.278827954
0.270430217
0.258084546
0.238154901
0.20833207
0.165622604
0.105149739
0.02903529
-0.0480006235
-0.0629665212
-0.0462440377
-0.0151687316
1.40428994e-05
0.0108995053
0.0146576146
0.0311109543
0.0433346487
0.0509643359
0.0543845782
0.0572972495
0.0593169125
0.0610229593
0.0622383972
0.063215936
0.0640248045
0.0647148149
0.0653412959
0.0659400056
0.0665634839
0.0672095893
0.0678909966
0.0685950924
0.0692978097
0.069942329
0.0705165098
0.0710128399
0.0714139729
0.0717000314
0.0719351189
0.0717708618
0.0716754759
0.0718563699
0.072211626
0.0728607019
0.0737938441
0.075021724
0.0765280467
0.0782972215
0.0803090523
0.082544688
0.0849859084
0.0876162109
0.0904204047
0.0933845124
0.0964954298
0.0997407641
0.103108713
0.106587904
0.110167343
0.113836343
0.117584445
0.121401397
0.125277214
0.129202208
0.133167021
0.137162624
0.141180362
0.145211964
0.149249587
0.153285818
0.157313711
0.161326781
0.16531903
0.169284937
0.173219467
0.177118057
0.180976614
0.184791491
0.18855948
0.192277768
0.19594392
0.199555833
0.203111714
0.206610082
0.210049792
0.213430019
0.216750241
0.220010197
0.22320984
0.226349286
0.229428766
0.232448569
0.2354091
0.238310792
0.241154291
0.243940094
0.246669279
0.249342063
0.251960621
0.254523916
0.257037359
0.259496664
0.261910466
0.264287312
0.266572537
0.26885128
0.271149907
0.273590835
0.276136658
0.278813363
0.281570578
0.284379084
0.287069898
0.289458727
0.29126389
0.292241428
0.292076398
0.290790337
0.288289776
0.284296959
0.278453983
0.26990805
0.257315578
0.237051061
0.206854658
0.163752619
0.103086998
0.0273957732
-0.048294321
-0.0626283442
-0.0460178532
-0.0150956695
4.25404439e-05
0.0109300316
0.0147005441
0.0310125951
0.0431628697
0.0508123109
0.0542786778
0.0572115543
0.0592529985
0.0609760134
0.0622094852
0.0631988618
0.0640166524
0.0647131242
0.0653437104
0.0659438474
0.0665666558
0.0672113185
0.0678909746
0.0685940712
0.069297907
0.0699455497
0.0705230517
0.0710222711
0.071425518
0.0717122142
0.0719493399
0.0717862423
0.0716945561
0.0718763533
0.0722314421
0.0728806784
0.0738138587
0.0750418221
0.0765481769
0.0783173281
0.0803290454
0.0825644677
0.0850053652
0.0876352332
0.0904388816
0.0934023369
0.0965124999
0.0997569843
0.103123995
0.106602167
0.110180513
0.113848357
0.117595251
0.12141095
0.125285477
0.129209153
0.133172627
0.137166877
0.141183258
0.145213506
0.149249784
0.153284685
0.157311268
0.161323056
0.165314054
0.169278745
0.173212097
0.177109549
0.180967012
0.18478084
0.188547825
0.192265156
0.1959304
0.199541453
0.203096523
0.20659413
0.210033128
0.213412689
0.216732291
0.219991672
0.223190783
0.226329739
0.229408771
0.23242817
0.235388341
0.238289718
0.24113295
0.243918535
0.246647558
0.249320238
0.251938768
0.254502099
0.25701569
0.259475181
0.261889581
0.264265288
0.266553169
0.268846783
0.271161013
0.273618608
0.276181105
0.278873519
0.281643352
0.284456896
0.287140173
0.289506558
0.291274186
0.292200697
0.291980151
0.290638495
0.28807368
0.284001371
0.278049788
0.269343843
0.256491475
0.235884696
0.205323112
0.161875964
0.101157125
0.0261469754
-0.0480248348
-0.0619531776
-0.0457067776
-0.0150034036
9.36457047e-05
0.0109840741
0.0147639942
0.030929284
0.0430080034
0.0506740499
0.0541789105
0.0571289525
0.0591906545
0.0609298759
0.0621808962
0.0631819526
0.064008578
0.0647114214
0.0653460553
0.0659475971
0.0665696556
0.0672126842
0.0678903094
0.0685920636
0.0692966247
0.0699470627
0.070527744
0.0710299133
0.0714352806
0.0717232228
0.0719624407
0.0717980348
0.0717089678
0.0718913869
0.0722460512
0.0728953763
0.0738288437
0.0750572688
0.0765640811
0.0783336166
0.0803455833
0.0825810999
0.0850219273
0.0876515648
0.0904548307
0.0934177636
0.096527276
0.0997709926
0.103137129
0.106614329
0.110191617
0.113858339
0.117604057
0.121418528
0.125291786
0.129214161
0.133176312
0.137169227
0.141184267
0.145213178
0.14924813
0.153281722
0.15730702
0.161317551
0.165307326
0.169270832
0.173203039
0.177099392
0.180955801
0.184768623
0.188534651
0.192251076
0.195915464
0.199525714
0.203080035
0.206576945
0.210015298
0.213394262
0.216713316
0.219972194
0.223170849
0.226309394
0.229388062
0.232407144
0.235367048
0.238268207
0.241111275
0.243896751
0.246625733
0.249298435
0.251917085
0.254480601
0.256994519
0.259454334
0.26186987
0.264243797
0.266531342
0.268838575
0.27116774
0.273642009
0.276221317
0.278929549
0.281711865
0.284530019
0.287205149
0.289548571
0.291278529
0.292154705
0.291879799
0.290483377
0.287854658
0.283702861
0.277642622
0.268777851
0.25567617
0.234757299
0.203889142
0.160213042
0.0996619516
0.0256445142
-0.0468701346
-0.0607574405
-0.045257898
-0.0149003687
0.000178540209
0.0110754654
0.0148676596
0.030861053
0.042854817
0.050543839
0.0540829785
0.0570471858
0.0591280622
0.0608830775
0.0621517623
0.0631647109
0.0640003828
0.0647097129
0.0653484421
0.0659513749
0.0665724938
0.0672135253
0.0678886029
0.0685884145
0.0692930621
0.0699457922
0.0705293623
0.0710344051
0.071441778
0.071731419
0.0719720872
0.0718039845
0.0717171012
0.0718999771
0.0722543924
0.0729041528
0.0738385523
0.0750681406
0.0765760673
0.0783465368
0.0803591748
0.082595082
0.0850360212
0.0876655112
0.0904683954
0.0934307397
0.0965394809
0.0997822634
0.103147319
0.106623311
0.1101993
0.113864661
0.117608946
0.121421923
0.125293644
0.129214454
0.133175024
0.137166356
0.14117982
0.145207173
0.149240595
0.153272693
0.15729654
0.161305669
0.165294097
0.169256315
0.173187298
0.177082491
0.180937808
0.184749607
0.188514683
0.192230225
0.195893802
0.199503314
0.20305697
0.206553287
0.209991115
0.21336962
0.216688278
0.219946821
0.223145201
0.22628353
0.229362044
0.232381037
0.23534092
0.238242128
0.241085323
0.243871006
0.246600297
0.249273405
0.251892611
0.254456786
0.256971585
0.259432279
0.261849769
0.264222091
0.26650748
0.268827243
0.271170548
0.273661023
0.276256457
0.278979444
0.281772435
0.284592523
0.287256231
0.289573208
0.291262336
0.292086034
0.291755846
0.290303749
0.287609297
0.283375032
0.277201688
0.268172765
0.254822258
0.233609855
0.202481746
0.158678919
0.0985014344
0.0257940052
-0.0448324275
-0.0589125393
-0.0445538873
-0.0147587473
0.000316955919
0.0112237397
0.0150400305
0.0308234824
0.042692785
0.0504168678
0.0539893993
0.0569651999
0.0590642394
0.0608347582
0.0621215238
0.0631468163
0.0639919427
0.0647080208
0.0653509792
0.0659552998
0.0665751983
0.0672136945
0.0678854418
0.0685823584
0.0692860402
0.0699401573
0.0705259504
0.0710334558
0.0714425243
0.0717340878
0.0719751248
0.0718019131
0.0717179564
0.0719012722
0.0722560989
0.0729071382
0.0738434762
0.0750751667
0.0765849641
0.0783569023
0.0803705235
0.0826069333
0.0850479227
0.0876770593
0.0904792378
0.0934405756
0.0965480524
0.0997893458
0.103152716
0.106626881
0.110200966
0.113864335
0.117606534
0.121417363
0.125286905
0.129205525
0.133163914
0.137153089
0.141164437
0.145189728
0.149221153
0.153251332
0.157273345
0.161280735
0.165267524
0.169228208
0.173157765
0.177051643
0.180905758
0.184716466
0.188480561
0.192195235
0.195858055
0.199466924
0.203020049
0.206515944
0.209953455
0.213331743
0.216650277
0.219908787
0.223107221
0.226245694
0.229324445
0.232343772
0.235304092
0.238205847
0.241049712
0.243836195
0.246566453
0.249240692
0.251861278
0.254427026
0.256943761
0.259406471
0.261827171
0.264199342
0.266482448
0.268813351
0.271168862
0.273673417
0.27628205
0.279016088
0.281814785
0.28463051
0.287275569
0.289558832
0.291200479
0.291966772
0.291578663
0.290068828
0.287305418
0.282983604
0.276689412
0.267485565
0.253877975
0.232379034
0.201021972
0.157169488
0.0975277675
0.0263956921
-0.0420936688
-0.0564188305
-0.0434940549
-0.0145276493
0.000533693689
0.0114491516
0.0153108011
0.0308420552
0.0425206863
0.0502898871
0.0538979452
0.0568832675
0.0589992421
0.0607848179
0.0620900817
0.0631282264
0.063983278
0.0647064177
0.0653537664
0.0659594611
0.0665777706
0.067213019
0.0678803739
0.0685730343
0.0692741595
0.0699281801
0.0705149882
0.0710240961
0.0714343492
0.0717278906
0.0719678598
0.0717896935
0.0717105824
0.0718943985
0.0722509158
0.0729046984
0.0738444087
0.0750793852
0.0765918771
0.0783657489
0.0803804906
0.0826172661
0.0850579442
0.0876861868
0.0904869791
0.0934465226
0.0965518655
0.0997907394
0.103151462
0.10662285
0.11019406
0.113854436
0.117593554
0.121401266
0.125267689
0.129183216
0.133138562
0.137124766
0.141133236
0.145155757
0.149184537
0.153212207
0.157231859
0.161237045
0.165221792
0.169180603
0.173108457
0.177000803
0.180853557
0.184663073
0.188426144
0.19213996
0.195802087
0.199410428
0.20296319
0.206458881
0.209896342
0.213274725
0.216593491
0.219852364
0.223051288
0.22619038
0.229269885
0.232290108
0.235251479
0.238154448
0.240999713
0.243787796
0.246519905
0.249196258
0.251819335
0.254387902
0.256908011
0.259374329
0.261799884
0.26417445
0.266456544
0.268796585
0.271160694
0.273675114
0.276291396
0.279029838
0.281825923
0.284627352
0.287242906
0.289481853
0.291066449
0.291768153
0.291317922
0.289747064
0.286910131
0.28249383
0.276068322
0.266674499
0.252794943
0.231006724
0.199436822
0.155586618
0.0965970476
0.0272355329
-0.038910679
-0.053395989
-0.0420396379
-0.014153125
0.000848216634
0.011765957
0.0157021111
0.0309446255
0.0423467304
0.0501600334
0.0538081992
0.0568017034
0.058933266
0.0607332691
0.0620574125
0.0631089529
0.0639744527
0.064705014
0.0653569376
0.0659639785
0.0665802375
0.0672113379
0.0678729325
0.0685595264
0.0692559188
0.0699077534
0.0704938434
0.0710033142
0.0714141415
0.0717095705
0.0719466695
0.0717656387
0.0716942411
0.0718788091
0.0722391634
0.0728978856
0.073842825
0.0750824109
0.0765983498
0.0783744138
0.0803901337
0.082626827
0.0850665166
0.0876930208
0.0904914638
0.0934481689
0.0965502814
0.0997856106
0.103142573
0.10661007
0.110177265
0.11383353
0.117568499
0.121372069
0.125234394
0.1291459
0.133097328
0.137079744
0.141084576
0.145103629
0.149129128
0.153153717
0.157170498
0.161173032
0.165155351
0.169111963
0.173037848
0.176928456
0.180779698
0.184587927
0.18834993
0.192062895
0.195724386
0.199332306
0.202884862
0.206380555
0.209818216
0.21319699
0.216516326
0.21977594
0.222975774
0.226115946
0.229196708
0.232218379
0.235181402
0.238086243
0.240933632
0.243724111
0.246458958
0.249138408
0.251765094
0.254337733
0.256862673
0.259334239
0.261766338
0.264146128
0.266429071
0.268775906
0.271143851
0.27366268
0.276279577
0.279014095
0.281797445
0.284572812
0.287146197
0.289328472
0.290844749
0.291472965
0.290954369
0.289316959
0.286399551
0.281879063
0.275308385
0.26570522
0.251532916
0.229443702
0.19766426
0.153849626
0.0955970207
0.0281433631
-0.0355174992
-0.0500174819
-0.0402221075
-0.0136000222
0.00126745779
0.0121775588
0.0162217464
0.0311534949
0.0421883983
0.0500256768
0.0537197089
0.0567204729
0.0588663643
0.0606800439
0.0620234452
0.0630889908
0.0639655418
0.0647039565
0.0653606805
0.0659690326
0.0665826843
0.0672085426
0.0678627022
0.0685409986
0.0692299888
0.069877105
0.0704604312
0.070968838
0.0713795734
0.0716764847
0.0719085527
0.0717287258
0.0716685602
0.0718546346
0.0722218486
0.0728881395
0.0738402089
0.0750855055
0.076605319
0.0783834988
0.080399763
0.0826356988
0.0850735642
0.0876973932
0.0904924908
0.0934453332
0.096543185
0.0997739494
0.103126146
0.10658874
0.110150933
0.113802159
0.117532101
0.121330699
0.125188144
0.129094892
0.133041716
0.137019707
0.141020315
0.145035364
0.149057095
0.153078164
0.157091686
0.161091228
0.165070826
0.169024992
0.172948706
0.176837417
0.180687031
0.184493898
0.188254798
0.191966915
0.195627811
0.199235389
0.202787852
0.206283698
0.209721748
0.213101134
0.216421296
0.219681941
0.222883008
0.226024615
0.229107027
0.232130574
0.235095722
0.238002955
0.240853038
0.243646542
0.246384825
0.249068147
0.251699316
0.254277004
0.256807907
0.25928599
0.261725943
0.264113166
0.266398746
0.268750461
0.271117494
0.273635394
0.27624603
0.278968443
0.281729221
0.284467192
0.286986142
0.289099624
0.290536244
0.291081363
0.290486295
0.288774227
0.285766592
0.281129207
0.274396274
0.26456126
0.250072253
0.227665495
0.195674202
0.151922562
0.0944803805
0.0290341144
-0.0320647775
-0.0464409335
-0.038116733
-0.012861456
0.00178781262
0.0126770306
0.0168619954
0.0314795965
0.0420725751
0.0498862991
0.05363352
0.0566392954
0.0587984346
0.0606249986
0.0619880634
0.0630683225
0.0639566394
0.0647034381
0.0653652479
0.065974878
0.0665852802
0.0672046317
0.0678494397
0.068516934
0.0691956129
0.0698353456
0.0704138227
0.0709196705
0.0713294409
0.0716268691
0.0718516415
0.0716786802
0.0716335082
0.0718225061
0.0722000135
0.0728763239
0.0738370452
0.0750887332
0.0766125281
0.0783925502
0.0804088486
0.0826433734
0.0850786781
0.0876990518
0.0904900072
0.0934381928
0.0965310035
0.0997564274
0.103103083
0.106560015
0.110116497
0.113762019
0.117486311
0.121279348
0.125131358
0.12903283
0.132974566
0.136947682
0.14094365
0.144954314
0.148971931
0.152989169
0.156999152
0.160995454
0.164972118
0.168923655
0.172845046
0.176731737
0.180579631
0.184385071
0.188144833
0.191856093
0.195516412
0.199123691
0.202676133
0.206172228
0.209610788
0.212990935
0.216312096
0.219573971
0.222776494
0.225919788
0.229004126
0.232029856
0.234997464
0.237907457
0.240760642
0.243557615
0.246299824
0.248987555
0.251623799
0.254207182
0.256744773
0.259230159
0.261678743
0.264074613
0.266364287
0.268719963
0.271082102
0.273594601
0.276193105
0.278896293
0.281625952
0.284316721
0.286770546
0.288804528
0.290151242
0.290604029
0.289923568
0.288127153
0.285017748
0.280248948
0.273335063
0.263245038
0.248416138
0.225676251
0.193473185
0.149816296
0.0932589611
0.0298963087
-0.0286176807
-0.042773915
-0.0358057335
-0.0119519209
0.00240101436
0.0132516973
0.0176037136
0.0319206742
0.0420279632
0.0497470253
0.0535540696
0.0565581044
0.0587292526
0.0605679387
0.0619511233
0.0630469341
0.0639478756
0.0647037134
0.0653709701
0.0659818573
0.0665883083
0.0671997848
0.0678332212
0.0684873723
0.0691528988
0.0697827171
0.0703543421
0.0708559999
0.071263508
0.0715599304
0.0717755458
0.0716158854
0.0715891948
0.071783094
0.0721741743
0.072862412
0.0738328697
0.0750913445
0.0766191259
0.0784007492
0.0804166989
0.0826493454
0.0850815741
0.0876979528
0.0904842189
0.0934272054
0.0965144275
0.0997339523
0.103074507
0.106525254
0.110075538
0.113714897
0.1174331
0.121220163
0.125066346
0.128962172
0.132898471
0.136866386
0.140857412
0.144863411
0.148876655
0.152889826
0.156896056
0.160888928
0.164862486
0.168811246
0.172730187
0.176614753
0.180460842
0.184264791
0.188023369
0.191733749
0.195393485
0.19900048
0.202552934
0.206049331
0.209488475
0.212869474
0.216191747
0.219454985
0.222659118
0.225804271
0.22889073
0.231918858
0.234889165
0.23780218
0.24065875
0.243459505
0.246205976
0.248898473
0.251540171
0.254129644
0.256674337
0.259167416
0.261625008
0.264029828
0.266324584
0.26868442
0.271038489
0.273542023
0.276123489
0.278801356
0.281492619
0.284127907
0.286507562
0.288452926
0.289700878
0.290052989
0.289278299
0.287387392
0.284164143
0.279249055
0.272135654
0.261768907
0.246580392
0.2234966
0.191088561
0.147565946
0.0919711258
0.0307518189
-0.0251903437
-0.0390751204
-0.0333554704
-0.0108952645
0.00309781868
0.0138877756
0.0184216874
0.0324635264
0.0420737792
0.0496208562
0.053490413
0.0564781645
0.0586586121
0.0605086649
0.0619124839
0.0630248391
0.0639394378
0.0647051149
0.0653782649
0.0659904125
0.066592196
0.0671944235
0.0678145288
0.0684529722
0.0691027651
0.0697203393
0.0702831156
0.070778686
0.0711821805
0.07147584
0.0716812566
0.0715411287
0.0715357511
0.0717368957
0.0721443738
0.0728459188
0.0738269249
0.0750924925
0.0766243218
0.0784074401
0.080422837
0.0826533353
0.085082176
0.0876942213
0.0904754465
0.0934128791
0.0964941204
0.0997073413
0.103041411
0.106485617
0.110029363
0.113662234
0.117374039
0.12115483
0.124994902
0.12888481
0.132815415
0.136777887
0.140763741
0.144764861
0.148773532
0.152782449
0.156784756
0.16077404
0.164744351
0.168690206
0.172606584
0.176488927
0.180333127
0.184135517
0.187892859
0.19160232
0.195261451
0.198868153
0.202420625
0.205917344
0.209357106
0.212739009
0.216062461
0.219327145
0.222532988
0.225680118
0.228768832
0.231799508
0.234772681
0.2376889
0.240549057
0.243353806
0.246104765
0.248802261
0.251449645
0.254045422
0.256597417
0.259098295
0.261565038
0.263978418
0.266278735
0.268643824
0.270987262
0.273478935
0.276039155
0.278686381
0.281332942
0.28390566
0.286203436
0.2880524
0.289193956
0.289437944
0.288560583
0.286565108
0.28321604
0.278140175
0.27080969
0.260146829
0.244583325
0.221150983
0.188552397
0.14521055
0.0906576011
0.0316275944
-0.0217784538
-0.0353718631
-0.0308109525
-0.00971618266
0.00386941871
0.0145733514
0.0192889384
0.033087573
0.0422198517
0.0495241177
0.0534530081
0.0564039613
0.0585867236
0.0604470851
0.0618720693
0.0630021127
0.0639315922
0.0647080609
0.065387637
0.0660010833
0.0665975186
0.0671892104
0.0677942023
0.0684148458
0.0690465993
0.0696497108
0.0702015259
0.0706888296
0.0710862911
0.0713755683
0.0715706287
0.0714553412
0.0714733796
0.0716842891
0.0721104738
0.0728263318
0.0738185636
0.0750915323
0.076627561
0.0784121969
0.080426984
0.0826552156
0.0850805063
0.0876880254
0.0904639986
0.0933956458
0.0964706313
0.0996772631
0.103004601
0.10644203
0.10997901
0.113605171
0.117310363
0.121084674
0.124918433
0.12880223
0.132726955
0.136683806
0.140664319
0.144660397
0.148664342
0.152668861
0.156667107
0.160652676
0.164619621
0.168562462
0.172476177
0.176356205
0.180198437
0.183999198
0.187755243
0.191463736
0.195122223
0.198728606
0.202281078
0.205778113
0.209218499
0.212601322
0.215925983
0.219192157
0.222399766
0.225548944
0.228639998
0.231673319
0.234649467
0.237569011
0.240432883
0.243241765
0.245997349
0.248699978
0.251353161
0.253955322
0.256514657
0.259023217
0.261499076
0.263920181
0.266226172
0.268597987
0.270928771
0.273406164
0.275941475
0.278553344
0.281149649
0.283653635
0.28586289
0.287608755
0.288637269
0.288766417
0.287778331
0.28566839
0.282181778
0.27693121
0.269367256
0.258391336
0.242441869
0.218662131
0.185893526
0.142783354
0.0893534942
0.0325468266
-0.0183750089
-0.0316766319
-0.0281997036
-0.0084357827
0.00470827547
0.0152998359
0.0201802118
0.0337678885
0.0424682394
0.0494779595
0.0534450116
0.0563448615
0.058514953
0.0603834174
0.0618299602
0.0629789269
0.0639246882
0.064713041
0.0653996524
0.0660144785
0.0666049606
0.0671849731
0.0677732864
0.068374294
0.0689858953
0.0695723313
0.0701109191
0.0705876045
0.0709769796
0.07126059
0.0714458159
0.0713594775
0.071402431
0.0716256107
0.0720723285
0.0728032563
0.0738073136
0.0750880087
0.0766284612
0.0784147339
0.0804289625
0.0826549206
0.0850766109
0.0876795212
0.09045014
0.0933758532
0.0964444092
0.0996442848
0.10296475
0.106395263
0.109925338
0.113544655
0.117243101
0.1210108
0.124838118
0.128715678
0.132634401
0.136585509
0.140560564
0.144551486
0.148550594
0.152550607
0.156544688
0.160526441
0.164489922
0.168429656
0.17234062
0.176218252
0.180058437
0.183857497
0.187612183
0.19131965
0.194977443
0.198583462
0.202135899
0.205633221
0.209074209
0.212457941
0.215783807
0.219051479
0.222260875
0.225412131
0.228505566
0.231541583
0.234520764
0.237443698
0.240311354
0.243124438
0.24588471
0.24859252
0.25125152
0.253860027
0.256426607
0.258942558
0.261427321
0.263855065
0.266166587
0.268546621
0.2708632
0.273324285
0.275831481
0.278403791
0.280944918
0.283374786
0.285489784
0.287126756
0.288036393
0.288044567
0.286938028
0.28470391
0.281068307
0.275629693
0.267817124
0.256513726
0.240171137
0.216047876
0.183131013
0.140305872
0.0880857106
0.0335286181
-0.0149747318
-0.0279960337
-0.0255379117
-0.00706991099
0.0056086846
0.0160621423
0.0210751229
0.0344776352
0.0428146581
0.0495058763
0.0534613492
0.056314036
0.0584467458
0.0603184724
0.0617864996
0.0629555669
0.0639191293
0.0647205692
0.0654148876
0.0660312211
0.0666152444
0.0671825959
0.0677528674
0.0683325971
0.0689220444
0.0694895592
0.0700125504
0.0704762372
0.0708555933
0.0711326081
0.0713089354
0.0712545069
0.0713234034
0.0715611758
0.072029828
0.0727764104
0.0737928326
0.0750815907
0.0766267428
0.0784148428
0.0804286465
0.0826524115
0.08507054
0.0876688479
0.0904341003
0.0933538026
0.0964158391
0.0996089028
0.102922441
0.106345983
0.109869097
0.113481511
0.117173149
0.120934174
0.124754987
0.128626246
0.132538899
0.136484198
0.140453725
0.14443942
0.148433618
0.152429051
0.156418892
0.160396753
0.164356694
0.168293245
0.172201381
0.176076541
0.179914606
0.183711895
0.187465151
0.191171528
0.194828566
0.198434166
0.201986516
0.205484075
0.20892562
0.212310221
0.215637263
0.218906409
0.222117578
0.225270908
0.228366725
0.231405447
0.234387674
0.237314013
0.240185467
0.243002764
0.245767718
0.248480684
0.251145434
0.253760151
0.256333766
0.258856675
0.261349984
0.263783115
0.266099804
0.268489447
0.270790647
0.273233725
0.275710006
0.278239008
0.280720598
0.283071646
0.28508745
0.286610523
0.28739613
0.287277669
0.286045238
0.283677435
0.279881714
0.274242399
0.266167503
0.254524429
0.237781992
0.213316481
0.18027389
0.137799587
0.0868705429
0.0345888149
-0.0115738561
-0.0243341352
-0.0228353405
-0.00562943816
0.00656683321
0.0168578856
0.0219605075
0.0351901096
0.0432477801
0.049615279
0.0534973703
0.0563222515
0.0583882366
0.0602539441
0.0617423898
0.0629324253
0.0639153119
0.0647311104
0.0654338609
0.0660518839
0.0666290571
0.0671829261
0.0677339645
0.0682909139
0.0688562807
0.0694026178
0.0699076236
0.0703560114
0.0707236005
0.0709933829
0.0711619557
0.07114142
0.0712368866
0.0714912801
0.0719829036
0.0727456002
0.0737748716
0.0750720337
0.0766221976
0.0784123697
0.080425947
0.0826476698
0.0850623484
0.0876561351
0.0904160776
0.0933297696
0.0963852784
0.0995715626
0.102878199
0.106294789
0.109810957
0.113416477
0.117101311
0.120855661
0.124669965
0.128534911
0.13244148
0.136380949
0.140344923
0.144325359
0.148314611
0.152305421
0.156290974
0.16026489
0.164221234
0.168154539
0.172059783
0.175932403
0.179768279
0.183563725
0.187315482
0.191020698
0.194676912
0.198282025
0.201834218
0.205331949
0.208773986
0.212159396
0.215487554
0.218758125
0.221971021
0.225126386
0.228224554
0.231265952
0.234251195
0.23718091
0.240056127
0.242877592
0.245647167
0.248365197
0.251035553
0.253656257
0.256236597
0.258765918
0.261267296
0.263704455
0.266025749
0.268426222
0.270711165
0.273134809
0.275577739
0.278060101
0.280478311
0.282746459
0.284658856
0.286063716
0.286720719
0.286470352
0.285104852
0.282594096
0.278627589
0.272775853
0.26442622
0.252430663
0.235277115
0.210484963
0.177385375
0.135375507
0.0857339675
0.0357405773
-0.00816936233
-0.0206936315
-0.0200982744
-0.00412151007
0.00758045161
0.0176862236
0.0228311723
0.0358805041
0.0437468125
0.0497664492
0.0535418536
0.0563700904
0.0583476728
0.0601925803
0.061698758
0.0629099928
0.0639135567
0.0647450058
0.0654569693
0.0660769376
0.0666469988
0.0671867207
0.0677174836
0.0682502654
0.0687897046
0.0693126462
0.0697973331
0.0702282628
0.0705825302
0.0708446548
0.0710066868
0.0710212161
0.0711435119
0.0714162097
0.0719315324
0.0727107074
0.0737532586
0.0750591643
0.0766146761
0.0784072061
0.0804208071
0.0826406967
0.0850520994
0.0876415104
0.0903962506
0.0933040082
0.0963530673
0.0995326742
0.102832502
0.106242227
0.109751528
0.113350226
0.11702832
0.120776053
0.124583895
0.128442569
0.132343087
0.136276749
0.140235184
0.144210367
0.148194667
0.152180842
0.156162085
0.160132024
0.164084732
0.168014745
0.171917041
0.175787061
0.179620682
0.183414216
0.187164399
0.19086838
0.194523693
0.198128239
0.201680197
0.205178015
0.208620462
0.212006596
0.215335792
0.218607708
0.22182226
0.224979592
0.228080047
0.231124055
0.234112249
0.237045269
0.239924169
0.242749711
0.245523787
0.248246729
0.25092248
0.253548874
0.256135542
0.258670637
0.261179511
0.263619273
0.265944447
0.26835675
0.270624788
0.273027789
0.275435267
0.277868045
0.280219519
0.282401267
0.284206709
0.285489654
0.286013969
0.285626742
0.284121253
0.281458642
0.277311381
0.271236332
0.262598575
0.250232863
0.232674678
0.207683953
0.17474503
0.133304427
0.0848034304
0.0369936538
-0.00475918977
-0.0170764011
-0.0173310538
-0.00255084311
0.00864835773
0.018546935
0.0236887737
0.0365279296
0.0442762994
0.0499121094
0.0535778146
0.0564487529
0.0583331119
0.0601381141
0.0616571703
0.0628888691
0.0639140755
0.0647624262
0.0654844496
0.0661067208
0.0666695565
0.0671946268
0.0677042156
0.0682115582
0.0687233283
0.0692207463
0.0696828889
0.0700943687
0.0704339362
0.0706881148
0.0708447947
0.0708948811
0.071043927
0.0713362578
0.071875745
0.0726716844
0.0737278914
0.0750428728
0.0766040823
0.078399286
0.0804132016
0.0826315147
0.0850398679
0.0876251079
0.090374796
0.0932767576
0.0963195289
0.0994926225
0.102785797
0.106188807
0.10969138
0.113283385
0.116954859
0.120696081
0.124497561
0.128350051
0.132244592
0.136172513
0.14012546
0.144095429
0.148074805
0.152056358
0.156033291
0.159999244
0.163948292
0.167874979
0.171774285
0.175641652
0.179472955
0.183264508
0.187013043
0.190715708
0.194370036
0.197973929
0.201525559
0.205023368
0.208466123
0.21185288
0.21518301
0.218456173
0.22167228
0.224831485
0.227934131
0.230980653
0.233971696
0.236907913
0.239790375
0.242619856
0.245398265
0.248125913
0.250806785
0.253438508
0.256031031
0.258571189
0.261086907
0.263527816
0.265856013
0.268280891
0.270531549
0.272912872
0.275283108
0.277663726
0.279945578
0.282037977
0.283733535
0.284891403
0.285279353
0.284750575
0.283098507
0.280275714
0.275938267
0.269627775
0.260684045
0.247944722
0.230110379
0.205164532
0.172578052
0.131708281
0.0842789325
0.0383500584
-0.00134243689
-0.0134838296
-0.0145368697
-0.000920666156
0.00977007535
0.0194399504
0.0245394008
0.0371178478
0.0447974696
0.0500804549
0.0536150608
0.0565509308
0.058349806
0.0600948768
0.061619585
0.0628698028
0.0639170029
0.0647833732
0.0655163697
0.0661414323
0.066697099
0.0672071849
0.0676948537
0.068175618
0.0686581145
0.0691280122
0.0695655266
0.0699557369
0.0702793775
0.070525394
0.0706778182
0.0707633755
0.0709387901
0.0712517415
0.071815632
0.0726285528
0.073698734
0.0750231104
0.0765903714
0.0783885856
0.0804031377
0.0826201701
0.085025745
0.0876070706
0.0903519001
0.0932482574
0.0962849764
0.099451778
0.102738513
0.106135013
0.109631054
0.113216548
0.11688157
0.12061644
0.1244117
0.128258137
0.132146819
0.136069099
0.140016645
0.143981471
0.147955978
0.151932946
0.155905594
0.159867568
0.16381295
0.16773629
0.171632571
0.175497237
0.179326167
0.18311567
0.186862482
0.190563747
0.194216999
0.197820144
0.201371343
0.204869033
0.20831198
0.21169924
0.215030182
0.218304468
0.221522011
0.224682967
0.227787682
0.23083659
0.233830349
0.23676962
0.239655485
0.242488725
0.245271252
0.248003348
0.250689014
0.253325643
0.255923485
0.258467939
0.260989781
0.263430375
0.265760645
0.26819856
0.270431495
0.272790235
0.275121729
0.277447968
0.279657768
0.281658404
0.283241728
0.284271828
0.284520069
0.283845327
0.282040577
0.279049586
0.274510969
0.267948882
0.25869239
0.245677704
0.227805191
0.202983378
0.170645841
0.130333092
0.0841449203
0.0397991081
0.00208086376
-0.0099169484
-0.011718207
0.000766686484
0.0109455595
0.0203652355
0.025390904
0.0376439013
0.0452842036
0.0503282957
0.0536942104
0.056656919
0.0583998017
0.0600668911
0.0615882029
0.0628537527
0.0639224964
0.0648077308
0.0655526483
0.0661811376
0.0667298818
0.0672248393
0.0676900142
0.0681432178
0.0685950035
0.069035547
0.06944651
0.0698137976
0.070120408
0.0703580631
0.0705071865
0.0706276328
0.0708287755
0.0711630159
0.0717513498
0.0725814043
0.0736658178
0.0749998902
0.0765735523
0.078375126
0.0803906594
0.0826067381
0.0850098426
0.0875875482
0.0903277639
0.0932187639
0.0962497217
0.0994105044
0.102691067
0.106081316
0.109571068
0.113150282
0.116809069
0.120537788
0.124327016
0.128167569
0.132050544
0.135967321
0.139909583
0.143869365
0.147839084
0.15181153
0.155779935
0.159737955
0.163679678
0.167599662
0.171492892
0.175354819
0.17918132
0.182968708
0.186713718
0.190413496
0.194065578
0.197667871
0.201218527
0.204715976
0.208158985