/*--------------------------------*- C++ -*----------------------------------*\
| =========                 |                                                 |
| \\      /  F ield         | OpenFOAM: The Open Source CFD Toolbox           |
|  \\    /   O peration     | Version:  2212                                  |
|   \\  /    A nd           | Website:  www.openfoam.com                      |
|    \\/     M anipulation  |                                                 |
\*---------------------------------------------------------------------------*/
FoamFile
{
    version     2.0;
    format      ascii;
    arch        "LSB;label=32;scalar=64";
    class       volVectorField;
    location    "1880";
    object      U;
}
// * * * * * * * * * * * * * * * * * * * * * * * * * * * * * * * * * * * * * //

dimensions      [0 1 -1 0 0 0 0];

internalField   nonuniform List<vector> 
15600
(
(0.0191273128 -1.79165824e-05 -3.90388203e-24)
(0.0212482524 -0.000553301614 -1.60050752e-20)
(0.0136885337 -0.00170734472 0)
(-0.00145284178 0.000166503422 -3.60488739e-19)
(-0.0088209207 0.00387642274 -3.75244484e-23)
(-0.00818666031 0.00493213597 -1.68298523e-21)
(-0.00577550864 0.00413059155 -1.16960965e-18)
(-0.00465317633 0.00364213378 1.25181995e-18)
(-0.00378824803 0.0031171658 -3.7645553e-16)
(-0.00318986213 0.00265928086 -4.04507328e-16)
(-0.002697343 0.00222250254 3.88465695e-22)
(-0.00242079013 0.0019571151 -8.0556633e-22)
(-0.00225837326 0.00179910393 8.67797461e-22)
(-0.00222708328 0.00175451676 -1.86739021e-18)
(-0.00232932728 0.00181890077 -1.9669389e-18)
(-0.00254618746 0.00197448462 -2.01991778e-21)
(-0.00281872996 0.00216582075 -2.15004589e-18)
(-0.0031009381 0.00232849283 4.51880957e-18)
(-0.00336627892 0.00242706593 -2.37517468e-18)
(-0.00355844434 0.00241521637 -2.52240719e-18)
(-0.00362747414 0.00226224978 2.66845368e-18)
(-0.00358803816 0.00199249589 -2.82287773e-18)
(-0.00348496575 0.00166974613 -4.37771421e-23)
(-0.00331326025 0.00132326718 -3.8181627e-23)
(-0.00310157331 0.000980528232 1.61563022e-18)
(-0.00298904354 0.000682942873 0)
(-0.002806319 0.000377852256 -2.44555151e-16)
(-0.00352922566 0.000159520977 -2.49609876e-16)
(-0.00583754028 4.28508656e-05 7.97955318e-25)
(-0.00831644845 4.40414334e-05 2.38013851e-32)
(-0.0105741986 5.04128761e-05 0)
(-0.0127474195 5.35734547e-05 -2.84265951e-16)
(-0.0147047575 5.6288193e-05 -2.91559443e-16)
(-0.0164594145 5.77047432e-05 0)
(-0.018004843 5.85487974e-05 0)
(-0.0193612304 5.87918483e-05 0)
(-0.0205461367 5.86364523e-05 0)
(-0.0215796123 5.81081189e-05 -3.77926074e-21)
(-0.0224785203 5.72635635e-05 3.17519209e-16)
(-0.0232575059 5.61137656e-05 3.3061717e-16)
(-0.0239282226 5.46724565e-05 -4.01020054e-21)
(-0.0245000388 5.29458678e-05 -4.27550106e-21)
(-0.0249804489 5.09469177e-05 4.27418747e-21)
(-0.0253756591 4.86914655e-05 -4.56511971e-21)
(-0.0256908459 4.61944485e-05 4.56423043e-21)
(-0.0259304361 4.34756871e-05 0)
(-0.0260983724 4.05576125e-05 -4.27710692e-16)
(-0.0261983088 3.74589747e-05 -4.44788279e-16)
(-0.0262337151 3.41998703e-05 -5.29100468e-21)
(-0.0262079593 3.08050712e-05 2.6880625e-21)
(-0.0261243137 2.73006413e-05 -2.86250972e-21)
(-0.0259860052 2.37102159e-05 5.81425092e-21)
(-0.0257962233 2.00562574e-05 -4.98285484e-16)
(-0.025558147 1.63614377e-05 -5.15093178e-16)
(-0.0252749572 1.26471851e-05 -1.56634031e-21)
(-0.02494984 8.93427737e-06 0)
(-0.0245859725 5.24158515e-06 9.78222254e-32)
(-0.0241865192 1.58725375e-06 -8.74591764e-22)
(-0.0237546157 -2.01290461e-06 1.32359726e-21)
(-0.0232933521 -5.5442074e-06 -4.48891287e-22)
(-0.0228057645 -8.99388512e-06 0)
(-0.0222948176 -1.23508772e-05 9.65698083e-22)
(-0.0217633896 -1.56057455e-05 -9.66051209e-22)
(-0.0212142637 -1.87507612e-05 1.16357952e-31)
(-0.0206501065 -2.17799226e-05 0)
(-0.0200734617 -2.4688622e-05 -2.10861917e-21)
(-0.0194867291 -2.74740518e-05 2.1094811e-21)
(-0.0188921626 -3.0134371e-05 0)
(-0.0182918807 -3.26685175e-05 0)
(-0.0176879004 -3.50755281e-05 0)
(-0.0170822041 -3.73534081e-05 0)
(-0.0164767866 -3.95006925e-05 0)
(-0.0158735993 -4.15188356e-05 7.95355575e-16)
(-0.0152744896 -4.34106035e-05 1.61201138e-15)
(-0.014681158 -4.51808231e-05 8.15947472e-16)
(-0.0140951254 -4.68348707e-05 -1.99641192e-20)
(-0.0135177488 -4.83779204e-05 1.00594655e-20)
(-0.0129502634 -4.98142168e-05 -1.03486846e-20)
(-0.0123938464 -5.11467251e-05 1.03527878e-20)
(-0.0118497773 -5.23738242e-05 8.84220812e-16)
(-0.0113194608 -5.34976005e-05 8.87001996e-16)
(-0.0108045712 -5.45118728e-05 -1.0772583e-20)
(-0.0103068755 -5.54258633e-05 1.10351923e-20)
(-0.00982879503 -5.62157638e-05 -2.22034941e-20)
(-0.00937258111 -5.69182792e-05 1.11681819e-20)
(-0.00894246411 -5.74438593e-05 -2.28303459e-20)
(-0.00854132492 -5.79295698e-05 4.59101401e-20)
(-0.00817787048 -5.80832947e-05 -2.3079351e-20)
(-0.00785485265 -5.83746976e-05 -2.35429236e-20)
(-0.00758606136 -5.80936623e-05 4.73179081e-20)
(-0.00738059293 -5.88180047e-05 -2.3774009e-20)
(-0.00715678442 -6.00972352e-05 -2.94242554e-24)
(-0.00699932595 -0.00029370887 0)
(-0.00687044344 -0.000873963845 2.46153333e-20)
(-0.00673514408 -0.00141846563 -6.28892373e-18)
(-0.00648811386 -0.00189276815 -2.18030959e-22)
(-0.00600069689 -0.00221128421 -1.19864061e-17)
(-0.00528961589 -0.00232957383 -1.17193005e-17)
(-0.00432356992 -0.00218294395 1.13087935e-17)
(-0.00304353865 -0.00168376639 -1.09044415e-17)
(-0.00141438416 -0.000770120534 1.05212008e-17)
(0.000581084919 0.00055096576 1.01522922e-17)
(0.00291612172 0.00222871182 0)
(0.00557542206 0.00419542673 0)
(0.00834397254 0.0062510553 -9.09739902e-18)
(0.0109982332 0.00826161067 -8.71617317e-18)
(0.0136133021 0.0103189659 -8.29047692e-18)
(0.0162839255 0.0125184946 -7.81587781e-18)
(0.0192078981 0.0150277101 -7.29260735e-18)
(0.0226525596 0.0180848019 6.70076902e-18)
(0.0276137314 0.0222881754 6.0449686e-18)
(0.0348009196 0.0276062345 -5.33295101e-18)
(0.0444446945 0.0335341083 4.50844255e-18)
(0.0579543811 0.0398458182 3.51744116e-18)
(0.0759955666 0.0446006216 -2.23753107e-18)
(0.0962836121 0.0427208951 0)
(0.0957022618 0.0259772344 -5.47279569e-19)
(0.0669964326 0.00855622464 0)
(0.0352023372 0.00109758696 6.75975902e-20)
(0.019642736 1.14854927e-05 0)
(0.0647860348 -8.93043399e-06 0)
(0.0680376043 -0.00148294034 -4.87183867e-23)
(0.0470370528 -0.00463422683 -1.00035333e-22)
(0.00362282932 9.10348165e-05 3.89604715e-16)
(-0.0218038833 0.0106929579 4.90796604e-16)
(-0.0228038632 0.014148397 -1.69493391e-18)
(-0.0166696789 0.0120747258 3.17854843e-24)
(-0.0134758975 0.0107146772 -1.93126959e-18)
(-0.0110551897 0.00922381429 5.83471372e-16)
(-0.00937082353 0.00790152245 6.21951137e-16)
(-0.00800375264 0.00663743071 -1.15795618e-21)
(-0.00722351118 0.00586148175 1.26067055e-21)
(-0.00678184994 0.00540657246 -1.3233845e-21)
(-0.00671466894 0.00528810186 -2.8839829e-18)
(-0.00702835006 0.00549056417 6.06221837e-18)
(-0.00766579559 0.00595807215 -3.08134816e-21)
(-0.00846661826 0.00652963454 3.31673938e-18)
(-0.00930459941 0.00701735101 -3.48331114e-18)
(-0.0101036752 0.00731316262 7.09718624e-21)
(-0.0107167588 0.00728322043 -7.56101031e-21)
(-0.0110176388 0.00684303684 -4.06305481e-18)
(-0.0110420748 0.00606130267 4.30269649e-18)
(-0.0109004423 0.00511530721 4.53857107e-18)
(-0.0105885396 0.00409306143 -9.2185187e-21)
(-0.010198942 0.00308219219 2.45756749e-18)
(-0.0100869589 0.00218375036 -2.53534781e-18)
(-0.0100475279 0.00132422071 3.76399545e-16)
(-0.0126347064 0.000785647597 3.7189159e-16)
(-0.0192850417 0.000502691124 -2.40155858e-24)
(-0.0262942983 0.000483217942 -3.56133598e-32)
(-0.0326298063 0.000461767718 0)
(-0.0385934143 0.000426398212 4.27291268e-16)
(-0.0438976688 0.000384905941 4.2432288e-16)
(-0.0485936395 0.000342073412 2.0006456e-20)
(-0.0526894192 0.00030168289 -1.00543423e-20)
(-0.0562511158 0.000264860096 -1.0486495e-20)
(-0.0593354425 0.000232071724 1.04554862e-20)
(-0.0620011099 0.000202977195 7.89717634e-32)
(-0.064296635 0.000177107576 -4.6689997e-16)
(-0.0662630988 0.000153873079 -4.75290484e-16)
(-0.067933044 0.000132750794 0)
(-0.069332576 0.000113304138 6.19932146e-21)
(-0.0704826699 9.52167522e-05 2.07303036e-22)
(-0.0714007155 7.82554824e-05 -6.39473885e-21)
(-0.0721012884 6.22383842e-05 -6.82920401e-21)
(-0.0725969274 4.70472663e-05 1.38826844e-20)
(-0.0728988362 3.26086032e-05 6.22864434e-16)
(-0.0730175117 1.88641136e-05 6.39318695e-16)
(-0.0729630055 5.78425634e-06 7.53202089e-21)
(-0.0727449969 -6.64031107e-06 0)
(-0.0723728112 -1.84212257e-05 -4.14224978e-21)
(-0.0718555581 -2.95666711e-05 4.14377334e-21)
(-0.0712021916 -4.0080599e-05 7.24099703e-16)
(-0.0704215861 -4.99617992e-05 7.43644568e-16)
(-0.0695225625 -5.9208178e-05 -2.3363585e-21)
(-0.0685138991 -6.78182213e-05 -6.58888601e-23)
(-0.0674042981 -7.57931215e-05 -6.59957956e-23)
(-0.0662023794 -8.31347968e-05 2.47580572e-21)
(-0.0649166394 -8.9849878e-05 -6.52721643e-22)
(-0.0635554182 -9.59467042e-05 6.53604285e-22)
(-0.0621268743 -0.000101436385 -6.87334534e-22)
(-0.0606389492 -0.000106333899 6.88373602e-22)
(-0.0590993301 -0.000110655793 2.88751957e-21)
(-0.0575154309 -0.000114422576 -2.89225127e-21)
(-0.0558943414 -0.000117657016 0)
(-0.0542428152 -0.000120384947 0)
(-0.0525672227 -0.00012263456 0)
(-0.0508735587 -0.000124433666 0)
(-0.0491674779 -0.000125805152 0)
(-0.0474543971 -0.000126763458 0)
(-0.0457396511 -0.000127309459 0)
(-0.0440285845 -0.000127444712 1.39584628e-20)
(-0.0423264041 -0.00012718453 -1.17046445e-15)
(-0.0406380367 -0.000126553055 -2.39073167e-15)
(-0.0389680261 -0.000125583285 -1.22070292e-15)
(-0.0373204723 -0.000124309733 -2.96992471e-20)
(-0.035699086 -0.000122760848 -2.14330271e-22)
(-0.0341073138 -0.000120954166 1.52273459e-20)
(-0.0325485324 -0.0001188883 1.5672171e-20)
(-0.0310264337 -0.000116533133 -1.30939537e-15)
(-0.0295451169 -0.000113860596 -1.34204793e-15)
(-0.0281094036 -0.000110809806 1.61558545e-20)
(-0.0267245568 -0.000107353412 0)
(-0.0253974839 -0.000103345496 3.35698046e-20)
(-0.0241352283 -9.87924127e-05 -3.36201138e-20)
(-0.02294955 -9.32681431e-05 -3.44021098e-20)
(-0.0218502693 -8.69905769e-05 3.44485931e-20)
(-0.0208606418 -7.87780751e-05 0)
(-0.0199919614 -6.99768282e-05 0)
(-0.0192826807 -5.78883075e-05 3.59528958e-20)
(-0.0187488727 -5.11619265e-05 -7.22943795e-20)
(-0.0182483638 -4.8826124e-05 3.6335881e-20)
(-0.0179631429 -0.000679223228 0)
(-0.0176294594 -0.00226792212 5.25339286e-23)
(-0.0171273949 -0.00374472034 0)
(-0.0162531793 -0.00501635669 9.33802143e-18)
(-0.0147086114 -0.00583394265 -1.829901e-17)
(-0.0125473563 -0.00606952966 -3.49901598e-20)
(-0.00969191055 -0.00554305541 3.35910211e-20)
(-0.00600402862 -0.00401885411 3.28019863e-20)
(-0.00142655589 -0.00134163419 -1.61902811e-17)
(0.00406426989 0.0024547868 -2.79394924e-20)
(0.0103965295 0.00722559912 -1.49429851e-17)
(0.0175233816 0.0127794904 0)
(0.0249254697 0.0185916786 0)
(0.0320882694 0.024323274 1.32374589e-17)
(0.0391751536 0.0302138833 1.25751001e-17)
(0.0464252076 0.0365273141 1.18435882e-17)
(0.0543348574 0.0437229664 1.53977635e-20)
(0.0636086495 0.0524542852 -1.01208302e-17)
(0.0766589865 0.0642546996 -1.82097987e-17)
(0.0953430247 0.078979496 0)
(0.120493432 0.0952225018 0)
(0.155415757 0.11209079 -5.12984355e-18)
(0.201820131 0.124219397 -3.1928858e-18)
(0.254826272 0.118779507 8.5598057e-19)
(0.26273981 0.0753214294 7.95308791e-19)
(0.200816331 0.0279680027 0)
(0.118722578 0.00529233386 0)
(0.0717320249 0.000706857701 0)
(0.11949105 0.00026432731 0)
(0.120508563 -0.00222402138 2.47464304e-20)
(0.0872567929 -0.00733365027 0)
(0.0170670023 -0.00118790513 -3.95915802e-16)
(-0.0302414272 0.0158367744 -5.04700915e-16)
(-0.0360251893 0.0223074318 1.74264614e-18)
(-0.027237693 0.0194767355 0)
(-0.0221261602 0.0174052735 2.47814347e-22)
(-0.0182607749 0.0150887925 -2.13624655e-18)
(-0.0155521306 0.0129923123 2.3026289e-18)
(-0.0133667131 0.01099112 2.16633582e-23)
(-0.0121015607 0.00975665093 -1.2875446e-21)
(-0.011402028 0.00905214337 0)
(-0.0113116142 0.00889914184 2.98355535e-18)
(-0.0118395994 0.00926772218 1.14142478e-22)
(-0.0128902779 0.0100586967 -3.21517657e-21)
(-0.0142130921 0.0110111379 3.32637812e-21)
(-0.0156089132 0.0118226654 0)
(-0.0169546098 0.0123130178 0)
(-0.0180287748 0.0122716291 0)
(-0.0186492819 0.0115749259 0)
(-0.0188725404 0.0103320215 -4.43231284e-18)
(-0.0188617683 0.00881136893 -4.64366669e-18)
(-0.0186246177 0.00715450744 9.51966357e-21)
(-0.0183232764 0.0055057882 -9.43811433e-21)
(-0.0184836324 0.00400604485 5.17321711e-18)
(-0.0191221543 0.00263838273 2.60767148e-18)
(-0.0239975836 0.00183033303 1.00877845e-20)
(-0.0347486554 0.00141652706 2.41218154e-24)
(-0.0458750474 0.00135714786 0)
(-0.0558369991 0.0012697293 0)
(-0.0650281193 0.00115554777 0)
(-0.0731041867 0.00102786405 0)
(-0.080169203 0.000902031096 0)
(-0.0862716006 0.000785657533 0)
(-0.0915287627 0.000681338667 0)
(-0.0960397235 0.000589323359 0)
(-0.099900145 0.000508308554 0)
(-0.103187898 0.00043666291 5.54406287e-21)
(-0.105967638 0.000372638418 -5.52802325e-21)
(-0.108290413 0.000314719544 5.87222151e-21)
(-0.110197133 0.000261683476 -5.86018764e-21)
(-0.111720792 0.000212636648 0)
(-0.112888793 0.000166917416 0)
(-0.1137242 0.000124019031 6.65886157e-21)
(-0.114246946 8.35953413e-05 2.23898968e-22)
(-0.114474856 4.54146616e-05 -6.87594449e-21)
(-0.114424769 9.32552197e-06 0)
(-0.114112942 -2.47353482e-05 0)
(-0.113555078 -5.68307677e-05 0)
(-0.112766073 -8.70312194e-05 0)
(-0.111760346 -0.000115382566 0)
(-0.110552004 -0.000141913642 4.2882904e-21)
(-0.109154953 -0.000166641864 -4.29195989e-21)
(-0.107582934 -0.000189580071 -2.27592092e-21)
(-0.105849541 -0.000210743667 -6.4186311e-23)
(-0.103968176 -0.000230151985 -6.43208114e-23)
(-0.101952049 -0.000247827685 2.41509645e-21)
(-0.0998141164 -0.000263802059 0)
(-0.0975670489 -0.000278111466 0)
(-0.0952231934 -0.000290797192 0)
(-0.0927945316 -0.000301909933 0)
(-0.0902926302 -0.000311502889 2.82752876e-21)
(-0.0877286188 -0.00031963896 6.27544771e-23)
(-0.0851131229 -0.000326384821 -2.90550785e-21)
(-0.0824562525 -0.00033181486 0)
(-0.0797675451 -0.000336006064 -6.21520844e-21)
(-0.0770559944 -0.00033903318 6.23359025e-21)
(-0.0743301139 -0.000340954941 -6.49308306e-21)
(-0.0715981002 -0.00034180771 -1.1801787e-22)
(-0.068868039 -0.000341596428 -6.88469515e-21)
(-0.0661480003 -0.000340331408 1.35789427e-20)
(-0.0634458217 -0.00033805528 0)
(-0.0607689176 -0.00033483353 0)
(-0.0581241464 -0.00033075016 1.46133913e-20)
(-0.0555177517 -0.000325890696 2.16795601e-22)
(-0.0529554644 -0.000320321743 -1.49237715e-20)
(-0.0504427099 -0.000314078429 -1.53948809e-20)
(-0.0479849242 -0.000307143451 1.54429369e-20)
(-0.0455880912 -0.000299431813 -1.59011967e-20)
(-0.0432589006 -0.00029085244 -1.9984227e-22)
(-0.0410051722 -0.000281243695 1.61982383e-20)
(-0.0388356108 -0.000270487954 3.32726025e-20)
(-0.0367613799 -0.000258224845 3.79376611e-22)
(-0.0347944699 -0.000244329287 -3.38445922e-20)
(-0.0329535957 -0.000227832321 0)
(-0.0312561757 -0.000208867289 -3.51307381e-20)
(-0.0297381226 -0.000184970471 3.52220361e-20)
(-0.0284211546 -0.000158302239 3.60091444e-20)
(-0.0273657523 -0.000123965763 -3.60929214e-20)
(-0.0265906051 -9.96530014e-05 0)
(-0.0259620736 -8.30936284e-05 0)
(-0.0256845084 -0.000978835677 1.20039106e-18)
(-0.0251660673 -0.00327559589 9.62209986e-18)
(-0.0242235469 -0.00537579396 3.74094011e-20)
(-0.0226434696 -0.00714259548 -9.49062446e-18)
(-0.0200352167 -0.00818618029 -2.8553009e-21)
(-0.016483644 -0.00831329858 0)
(-0.0118717703 -0.00725422734 0)
(-0.00599385861 -0.00467014709 3.35419521e-20)
(0.00121267294 -0.000352566547 -3.20855341e-20)
(0.00976784462 0.00562875957 3.35093368e-20)
(0.019562355 0.0130534624 1.51967953e-17)
(0.0305151222 0.0216297447 -1.4610856e-17)
(0.041888052 0.030621252 0)
(0.0529845715 0.0395680923 -1.30131559e-20)
(0.0640195711 0.0488003666 1.24668516e-20)
(0.0753480004 0.0587096643 0)
(0.0877047885 0.0699667111 1.11469896e-17)
(0.102171689 0.0835296022 0)
(0.12218866 0.101472046 9.16177491e-18)
(0.150482192 0.12348603 -9.10401734e-22)
(0.188407628 0.147446377 8.70649532e-22)
(0.240323675 0.171564377 5.08697073e-18)
(0.308322942 0.18787633 3.13796203e-18)
(0.38592003 0.178998641 -1.65108328e-18)
(0.407509315 0.118399273 -7.66393267e-19)
(0.332730272 0.0490989157 0)
(0.215075781 0.0118719359 -9.64830375e-20)
(0.1378803 0.00242518912 3.28417575e-23)
(0.183963311 0.00101137208 6.10900057e-24)
(0.179257669 -0.00267099578 -6.1392522e-24)
(0.134559909 -0.00975652116 1.32673899e-19)
(0.0394233681 -0.00348249356 0)
(-0.0333335665 0.0193294685 -1.55258664e-18)
(-0.0474847382 0.029393667 -1.80349761e-18)
(-0.0373287854 0.0262905645 0)
(-0.0305199041 0.0236802404 0)
(-0.0253455635 0.020683928 2.21130318e-18)
(-0.0216915893 0.0179113644 -2.38349219e-18)
(-0.0187579275 0.0152666915 2.56848637e-18)
(-0.0170369895 0.013631219 -1.33307766e-21)
(-0.0161070767 0.0127275486 0)
(-0.0160103758 0.0125818058 -3.08718457e-18)
(-0.0167575195 0.013146294 -3.23888557e-18)
(-0.0182141247 0.0142734796 3.31955808e-21)
(-0.020050804 0.0156082475 -3.53957194e-18)
(-0.02200456 0.0167427053 -3.69045922e-18)
(-0.0239094232 0.0174266853 3.87894345e-18)
(-0.0254878164 0.0173843847 -4.07407632e-18)
(-0.0265229504 0.0164673832 0)
(-0.0270931434 0.014820329 4.52445539e-18)
(-0.0274026374 0.012781743 9.26411486e-21)
(-0.0274797869 0.0105399794 -4.96870569e-18)
(-0.0275571931 0.008289721 -2.56159602e-18)
(-0.0283055392 0.00620504223 -2.65225482e-18)
(-0.0301446888 0.00438681946 -1.31390332e-18)
(-0.0376155016 0.00333317887 3.22579628e-19)
(-0.052106625 0.00279873817 -2.39049675e-24)
(-0.0668084983 0.00266774612 -9.67173958e-21)
(-0.0798029719 0.00246117852 9.52526695e-21)
(-0.0915396485 0.0022170523 0)
(-0.101706615 0.00195443844 0)
(-0.110478578 0.0017029023 -9.67519532e-21)
(-0.117965333 0.00147365234 9.58897349e-21)
(-0.124339068 0.00127034066 -9.95571934e-21)
(-0.129741991 0.00109205197 9.88506963e-21)
(-0.134303817 0.000935664589 0)
(-0.138128584 0.000797606304 0)
(-0.141301238 0.000674352525 0)
(-0.143888704 0.000562916905 0)
(-0.145944629 0.000460941232 5.76573578e-21)
(-0.147512484 0.000366701045 -5.74542625e-21)
(-0.148628466 0.000278921104 -6.11882002e-21)
(-0.149323166 0.000196631834 1.24117071e-20)
(-0.149623108 0.000119137539 -6.29511415e-21)
(-0.149551925 4.59822601e-05 0)
(-0.149131959 -2.30071524e-05 0)
(-0.148385802 -8.79222086e-05 0)
(-0.147334755 -0.00014896411 0)
(-0.145998512 -0.000206298437 -3.78512066e-21)
(-0.144396072 -0.000260022694 -8.63748343e-16)
(-0.142545912 -0.000310199836 -8.93814907e-16)
(-0.14046612 -0.000356873609 -4.01578912e-21)
(-0.138174441 -0.000400078509 -4.25582782e-21)
(-0.135688306 -0.000439854325 4.25898437e-21)
(-0.133024789 -0.000476246364 0)
(-0.130200611 -0.000509307131 0)
(-0.127232083 -0.000539102682 0)
(-0.124135079 -0.000565708849 0)
(-0.120924995 -0.000589209538 0)
(-0.117616718 -0.000609705272 0)
(-0.114224574 -0.00062730086 0)
(-0.110762307 -0.000642118286 0)
(-0.107243016 -0.000654285508 0)
(-0.10367915 -0.000663943867 0)
(-0.100082457 -0.00067123648 -5.82148317e-21)
(-0.0964640383 -0.000676299929 1.33314533e-15)
(-0.0928344458 -0.000679238531 1.35801152e-15)
(-0.089203885 -0.000680115411 -6.11901004e-21)
(-0.0855824418 -0.000678942533 1.27327932e-20)
(-0.0819801514 -0.000675746856 -1.27894423e-20)
(-0.0784067365 -0.000670612528 1.32790638e-20)
(-0.0748714012 -0.000663664492 -1.33408853e-20)
(-0.0713826987 -0.00065505643 0)
(-0.0679484992 -0.000644940102 1.40962297e-20)
(-0.0645761458 -0.000633427405 -1.41648131e-20)
(-0.0612727358 -0.000620566399 0)
(-0.0580455384 -0.000606304431 0)
(-0.0549026247 -0.000590470193 0)
(-0.0518530701 -0.000572870245 0)
(-0.0489074637 -0.000553191141 0)
(-0.0460777435 -0.000531156999 0)
(-0.0433790467 -0.000506096138 0)
(-0.0408281396 -0.000477615405 -3.3012133e-20)
(-0.038450188 -0.000444014714 6.67279745e-20)
(-0.0362700623 -0.000405091311 -6.77907172e-20)
(-0.0343349577 -0.000356816838 3.42565516e-20)
(-0.0326771865 -0.000301862305 0)
(-0.031377022 -0.000233190418 0)
(-0.0304572641 -0.000178361447 0)
(-0.0298405988 -0.000131575069 -3.66989495e-20)
(-0.0296909185 -0.00115325286 -2.33530633e-18)
(-0.0289908435 -0.00383909467 -4.7300467e-18)
(-0.0275337721 -0.00623403454 9.4417228e-18)
(-0.0251873205 -0.00817453803 3.66532155e-20)
(-0.0215408202 -0.00916119138 3.65697003e-17)
(-0.0167046924 -0.00895595577 -3.50626926e-20)
(-0.0105312473 -0.00722973578 3.37594274e-20)
(-0.00275828838 -0.00358265868 1.68640471e-17)
(0.00667171494 0.00221278213 -1.61860411e-17)
(0.0177696805 0.0100505527 -1.55128713e-17)
(0.030401359 0.0196577825 -2.9019893e-20)
(0.044454758 0.0306721183 3.05513341e-20)
(0.0590683121 0.0422537893 -1.33378202e-20)
(0.0734595271 0.0538961939 2.56037927e-20)
(0.0878613778 0.0659719159 -1.25033401e-17)
(0.102710583 0.0789565434 1.13932447e-20)
(0.118913354 0.0936542925 -1.10005887e-17)
(0.137847593 0.111212438 -4.7967879e-21)
(0.16359851 0.133901962 4.50802575e-21)
(0.199503634 0.161201513 8.90578403e-22)
(0.247324628 0.190411519 -8.46340764e-22)
(0.311765585 0.218738836 0)
(0.394751093 0.23631771 0)
(0.489044233 0.223789367 5.50211676e-21)
(0.526628947 0.153550309 7.3806328e-19)
(0.455643257 0.0701658471 0)
(0.319462488 0.0204504926 9.25998921e-20)
(0.21715609 0.00536014768 0)
(0.257607086 0.00243390305 0)
(0.244284777 -0.00270381754 2.46965699e-20)
(0.188774751 -0.0118708525 1.19936703e-21)
(0.0709380012 -0.00662902515 1.61191639e-22)
(-0.0301267132 0.0211049355 1.55912427e-18)
(-0.0567474298 0.0353917255 1.85336083e-18)
(-0.0467717979 0.0324825653 0)
(-0.0385702807 0.0295095737 0)
(-0.0322481477 0.0259848793 2.28102303e-18)
(-0.0277462181 0.022642084 2.46249719e-18)
(-0.024146943 0.0194506478 -2.65777607e-18)
(-0.0220097605 0.0174757917 0)
(-0.0208826657 0.0164254216 -3.02832351e-18)
(-0.0208004022 0.016329485 8.38644733e-23)
(-0.0217730017 0.0171192522 -3.34353446e-18)
(-0.0236276458 0.0185947475 3.48711907e-18)
(-0.0259676127 0.02031283 -1.51219689e-22)
(-0.0284763714 0.0217693292 3.79024194e-18)
(-0.0309515629 0.0226486152 -3.96875782e-18)
(-0.0330789512 0.0226222995 8.47649154e-21)
(-0.0346285441 0.0215294999 -8.5270036e-21)
(-0.0357027626 0.01954361 0)
(-0.0365367632 0.0170533472 4.83940387e-18)
(-0.0371856993 0.0142856596 5.03600269e-18)
(-0.0379489237 0.0114765907 0)
(-0.0396308266 0.0088400984 -2.64424791e-18)
(-0.0431268963 0.00661666418 1.02984574e-20)
(-0.0533016804 0.00529224883 -3.27002772e-19)
(-0.0709814278 0.00461054666 1.16175458e-24)
(-0.0885074539 0.0043598627 -9.33129334e-21)
(-0.103722309 0.00396890431 1.83188569e-20)
(-0.117135819 0.00353604313 -9.00983892e-21)
(-0.128544662 0.0030879617 9.07749463e-21)
(-0.138214478 0.00266887652 -8.92883071e-21)
(-0.146332208 0.00229229767 9.14902373e-21)
(-0.153126606 0.00196147117 2.20278403e-22)
(-0.158781745 0.00167294761 -9.12002077e-21)
(-0.163457527 0.0014206993 0)
(-0.167280279 0.00119838308 0)
(-0.170351667 0.00100009417 -9.89099849e-21)
(-0.172751669 0.000820946646 9.79350916e-21)
(-0.174544486 0.000657145752 0)
(-0.175782397 0.00050591816 -5.30199993e-21)
(-0.176509053 0.000365208068 5.26054586e-21)
(-0.176761406 0.000233439225 0)
(-0.176571445 0.000109454024 -5.73024031e-21)
(-0.175967395 -7.31743682e-06 5.69281564e-21)
(-0.174977919 -0.000117026131 0)
(-0.173631071 -0.000219963762 0)
(-0.171951491 -0.000316542812 0)
(-0.169962412 -0.000407044257 3.26439691e-21)
(-0.167686124 -0.000491640255 7.45891626e-16)
(-0.165144126 -0.000570451116 7.62621831e-16)
(-0.162357278 -0.000643568749 3.43198971e-21)
(-0.159345866 -0.000711070342 0)
(-0.156129641 -0.000773040354 0)
(-0.1527278 -0.000829569817 0)
(-0.149159008 -0.00088076021 0)
(-0.145441354 -0.00092673102 0)
(-0.141592343 -0.000967615537 0)
(-0.137628873 -0.00100355788 0)
(-0.133567211 -0.00103472544 0)
(-0.129422961 -0.00106129131 2.22440373e-21)
(-0.125211052 -0.00108345272 -2.23004016e-21)
(-0.120945688 -0.00110141448 0)
(-0.116640356 -0.0011153992 0)
(-0.112307794 -0.00112562819 0)
(-0.107960069 -0.00113230816 -1.11672508e-15)
(-0.103608702 -0.00113559309 -1.14834091e-15)
(-0.099264887 -0.00113557367 -5.15380661e-21)
(-0.0949397179 -0.00113227088 -1.07328631e-20)
(-0.0906442203 -0.00112573485 1.07912221e-20)
(-0.0863890677 -0.00111610125 0)
(-0.0821843869 -0.00110356467 1.14633633e-20)
(-0.0780396518 -0.00108835621 -2.32469412e-20)
(-0.0739636902 -0.00107069605 -1.74318851e-22)
(-0.0699648889 -0.0010507353 -1.72228958e-22)
(-0.0660515298 -0.00102851784 1.2300722e-20)
(-0.0622322755 -0.00100392673 2.54580675e-20)
(-0.0585168457 -0.000976667299 -2.56481821e-20)
(-0.0549162322 -0.00094639859 0)
(-0.0514432875 -0.000912599659 0)
(-0.0481126178 -0.000874757843 2.75904894e-20)
(-0.0449426888 -0.000831789326 -5.59751631e-20)
(-0.0419542846 -0.00078287448 2.84005894e-20)
(-0.0391780318 -0.000725407473 2.92966316e-20)
(-0.0366450493 -0.000658553614 -2.95924712e-20)
(-0.0344119747 -0.000576495927 0)
(-0.0325201407 -0.000481964321 0)
(-0.0310672389 -0.000365661257 0)
(-0.0300840864 -0.000263803694 0)
(-0.0295765351 -0.000167365277 -3.40671825e-28)
(-0.0296347962 -0.00117606577 1.04924867e-18)
(-0.0287569876 -0.00392811811 3.37863941e-20)
(-0.0267538479 -0.00628826964 -8.59807495e-18)
(-0.0236532178 -0.00808830047 0)
(-0.0190802969 -0.00875791932 -3.29583959e-17)
(-0.0131611587 -0.00803649333 0)
(-0.0057257074 -0.00556594398 0)
(0.00353203384 -0.000923745508 -1.50548765e-17)
(0.0146632612 0.00611294485 1.44063531e-17)
(0.0276709225 0.0154110961 2.70333255e-20)
(0.0424124507 0.0266741656 -1.32532008e-17)
(0.058756319 0.0395047553 1.27489155e-17)
(0.0758174772 0.0530619763 0)
(0.0928088226 0.0668558551 0)
(0.109955124 0.0812658543 1.14993873e-17)
(0.127735194 0.0968063092 -1.96512188e-22)
(0.147152774 0.114339519 1.02638486e-17)
(0.169774786 0.135083829 9.42347727e-18)
(0.199967489 0.16121386 4.22427358e-21)
(0.241430803 0.191946959 -7.25997525e-18)
(0.296173187 0.224116675 5.92944336e-18)
(0.368689629 0.253949473 4.38865454e-18)
(0.460324712 0.270310382 2.61213154e-18)
(0.563817625 0.253813969 6.96167101e-19)
(0.616769786 0.179539237 1.82311672e-22)
(0.56155882 0.0892044119 -1.83835194e-22)
(0.424291496 0.0301917293 -8.39743413e-20)
(0.306064827 0.00947062082 0)
(0.337151947 0.00462460285 -5.77474748e-24)
(0.31396673 -0.00218765407 -2.32248185e-20)
(0.248894759 -0.013561279 -1.2359697e-19)
(0.111442677 -0.0104304351 -1.54629337e-22)
(-0.0196270603 0.0210618468 -3.10037775e-18)
(-0.0632797668 0.0402359099 -1.90316619e-18)
(-0.0553784134 0.0380023695 2.02367279e-18)
(-0.046195142 0.034850554 -2.18507368e-18)
(-0.0389134641 0.0309578841 -2.35503676e-18)
(-0.0336789212 0.0271612486 -5.08508756e-18)
(-0.0295062815 0.0235249603 1.32569304e-21)
(-0.0270006152 0.0212774505 -2.89383765e-21)
(-0.0257130059 0.020135463 3.13363092e-18)
(-0.0256672881 0.0201326098 6.5875585e-18)
(-0.0268707287 0.021175893 3.44079715e-18)
(-0.029112857 0.0230098614 -3.58059608e-18)
(-0.0319411746 0.0251100546 -1.47620467e-22)
(-0.0349966174 0.0268858669 7.60761281e-21)
(-0.0380488518 0.0279628807 7.95638454e-23)
(-0.0407668019 0.0279738268 8.46102232e-18)
(-0.0429271156 0.0267555405 0)
(-0.0446581595 0.0245016787 -4.64019982e-18)
(-0.0462176212 0.0216326123 -4.85591036e-18)
(-0.0476906361 0.0184047528 0)
(-0.0494363987 0.0150865621 0)
(-0.0523812932 0.0119426143 2.60771366e-18)
(-0.0578409519 0.00933506151 4.80814635e-24)
(-0.0705502166 0.00767334614 2.84830051e-19)
(-0.0905904935 0.00678803995 9.00239552e-21)
(-0.109881181 0.0063499003 0)
(-0.12621313 0.0056982442 -8.48972624e-21)
(-0.140198884 0.0050132014 8.22370988e-21)
(-0.151809263 0.00433035655 0)
(-0.161422035 0.00370590905 8.10387211e-21)
(-0.169310415 0.00315296958 -7.88886275e-21)
(-0.175757393 0.00267191788 0)
(-0.180983158 0.00225497024 0)
(-0.185170549 0.00189192438 0)
(-0.188461291 0.00157281131 0)
(-0.190967626 0.00128878032 8.2771697e-21)
(-0.192777367 0.00103267358 -8.12355902e-21)
(-0.193960828 0.000799007383 -8.51210769e-21)
(-0.194575263 0.000583772647 1.26994252e-20)
(-0.194668402 0.000383977107 -4.26026493e-21)
(-0.194280463 0.000197314273 0)
(-0.19344604 2.22243873e-05 0)
(-0.192197728 -0.000141942206 0)
(-0.190568009 -0.000295612349 0)
(-0.188584049 -0.000439413944 0)
(-0.186271199 -0.000573953516 0)
(-0.183653706 -0.000699646893 5.0655772e-21)
(-0.180754734 -0.000816777348 -5.02275232e-21)
(-0.177596498 -0.00092555889 0)
(-0.174200416 -0.00102616509 0)
(-0.1705872 -0.00111874683 0)
(-0.166776907 -0.00120346113 -1.41731857e-21)
(-0.162788944 -0.00128047004 1.41170652e-21)
(-0.158642103 -0.00134994642 0)
(-0.15435454 -0.00141208309 0)
(-0.149943775 -0.00146708804 0)
(-0.145426688 -0.00151518082 0)
(-0.140819503 -0.00155660849 0)
(-0.136137771 -0.00159162356 0)
(-0.131396363 -0.00162050748 1.70544656e-21)
(-0.126609436 -0.00164354929 -1.70854073e-21)
(-0.121790445 -0.0016610578 0)
(-0.116952125 -0.00167333534 0)
(-0.112106583 -0.00168065844 0)
(-0.107265425 -0.00168322836 0)
(-0.102439983 -0.00168115951 0)
(-0.0976415282 -0.00167447987 7.9999989e-21)
(-0.0928812794 -0.00166326301 1.36208635e-22)
(-0.088170113 -0.00164769666 -8.23230634e-21)
(-0.0835183875 -0.00162804304 0)
(-0.0789358665 -0.00160460505 0)
(-0.0744317541 -0.00157766075 0)
(-0.0700149288 -0.0015473845 0)
(-0.0656943039 -0.00151379327 1.87019434e-20)
(-0.0614793399 -0.00147667621 -3.79901904e-20)
(-0.0573807388 -0.00143558224 1.93014115e-20)
(-0.0534106534 -0.0013899818 -1.99933754e-20)
(-0.04958333 -0.00133910096 2.02038371e-20)
(-0.0459150174 -0.00128211755 0)
(-0.0424262539 -0.00121746251 0)
(-0.0391402789 -0.00114373592 2.19224847e-20)
(-0.0360910957 -0.00105732655 -2.2225031e-20)
(-0.0333135424 -0.000956440246 0)
(-0.030870074 -0.000833396498 2.36536473e-20)
(-0.0288076527 -0.000690272427 -2.4087649e-20)
(-0.0272363286 -0.000515261526 0)
(-0.0261964594 -0.000349994513 -2.58556563e-20)
(-0.0257759752 -0.000184233321 2.65221313e-20)
(-0.0260177243 -0.00106702284 -2.7515892e-20)
(-0.0249945412 -0.00362131514 2.72685528e-20)
(-0.0225239491 -0.00569395632 0)
(-0.0188171317 -0.00713205118 -6.72371493e-18)
(-0.0135524178 -0.00733121433 1.30565484e-17)
(-0.00685654978 -0.00602342426 1.27491955e-17)