/*--------------------------------*- C++ -*----------------------------------*\
| =========                 |                                                 |
| \\      /  F ield         | OpenFOAM: The Open Source CFD Toolbox           |
|  \\    /   O peration     | Version:  2112                                  |
|   \\  /    A nd           | Website:  www.openfoam.com                      |
|    \\/     M anipulation  |                                                 |
\*---------------------------------------------------------------------------*/
FoamFile
{
    version     2.0;
    format      ascii;
    arch        "LSB;label=32;scalar=64";
    class       volScalarField;
    location    "5000";
    object      epsilon;
}
// * * * * * * * * * * * * * * * * * * * * * * * * * * * * * * * * * * * * * //

dimensions      [0 2 -3 0 0 0 0];

internalField   nonuniform List<scalar> 
2304
(
0.00618216
0.00616401
0.00612998
0.00608203
0.00602186
0.00595096
0.00587063
0.005782
0.00568605
0.00558364
0.00547552
0.00536232
0.00524461
0.00512286
0.00499748
0.00486881
0.00473716
0.00460276
0.00446583
0.00432653
0.004185
0.00404137
0.00389572
0.00374812
0.00359864
0.00344733
0.00329423
0.00313937
0.00298277
0.00282447
0.00266449
0.00250286
0.00233962
0.0021748
0.00200846
0.00184066
0.00167151
0.00150115
0.0013298
0.00115782
0.000985807
0.000814773
0.000646473
0.00048387
0.000331675
0.000196603
8.68385e-05
1.21652e-05
0.00411643
0.00410266
0.00407685
0.00404049
0.00399488
0.00394114
0.00388028
0.00381318
0.00374059
0.00366319
0.00358157
0.00349626
0.00340771
0.00331634
0.00322249
0.00312649
0.00302862
0.00292912
0.00282822
0.00272613
0.00262301
0.00251904
0.00241436
0.00230911
0.00220343
0.00209742
0.00199122
0.00188491
0.00177862
0.00167243
0.00156646
0.00146079
0.00135554
0.00125079
0.00114664
0.00104321
0.000940607
0.000838965
0.000738453
0.000639304
0.000541868
0.000446723
0.000354852
0.000267941
0.00018883
0.000122311
7.7666e-05
8.68385e-05
0.00371523
0.00370273
0.00367926
0.00364617
0.00360459
0.00355553
0.00349987
0.00343837
0.00337171
0.00330048
0.00322521
0.00314637
0.0030644
0.00297965
0.00289248
0.0028032
0.00271208
0.0026194
0.00252538
0.00243025
0.00233422
0.00223749
0.00214024
0.00204265
0.00194488
0.0018471
0.00174946
0.00165212
0.00155522
0.0014589
0.0013633
0.00126855
0.00117478
0.00108211
0.000990667
0.000900569
0.000811934
0.000724887
0.000639568
0.000556156
0.00047491
0.000396265
0.000321006
0.000250644
0.000188211
0.000140187
0.000122311
0.000196603
0.00332743
0.00331635
0.00329557
0.00326623
0.00322934
0.00318577
0.00313627
0.00308151
0.00302208
0.00295849
0.00289122
0.00282068
0.00274725
0.00267128
0.00259308
0.00251294
0.00243114
0.00234792
0.00226353
0.00217819
0.00209211
0.00200549
0.00191853
0.00183142
0.00174433
0.00165743
0.00157089
0.00148486
0.0013995
0.00131495
0.00123134
0.00114881
0.00106747
0.00098744
0.000908811
0.000831677
0.000756117
0.000682198
0.000609984
0.00053954
0.000470968
0.000404473
0.000340529
0.000280302
0.000226793
0.000188211
0.00018883
0.000331675
0.00297024
0.00296041
0.00294196
0.0029159
0.00288313
0.00284439
0.00280036
0.00275162
0.0026987
0.00264205
0.00258209
0.00251921
0.00245374
0.00238602
0.00231632
0.00224494
0.00217212
0.00209811
0.00202315
0.00194745
0.00187123
0.00179468
0.001718
0.00164136
0.00156496
0.00148894
0.00141348
0.00133872
0.00126481
0.00119187
0.00112004
0.00104943
0.000980142
0.000912271
0.000845896
0.000781083
0.000717885
0.000656335
0.000596453
0.000538248
0.000481738
0.000426998
0.000374302
0.000324509
0.000280302
0.000250644
0.000267941
0.00048387
0.0026568
0.00264801
0.00263152
0.00260822
0.0025789
0.00254426
0.00250487
0.00246126
0.00241391
0.00236324
0.00230963
0.00225343
0.00219495
0.00213451
0.00207238
0.00200882
0.00194409
0.00187841
0.00181202
0.00174512
0.00167791
0.0016106
0.00154336
0.00147637
0.0014098
0.00134379
0.0012785
0.00121407
0.00115062
0.00108827
0.00102714
0.00096731
0.000908882
0.00085193
0.00079652
0.000742706
0.00069053
0.000640017
0.000591182
0.000544034
0.000498588
0.000454911
0.000413237
0.000374302
0.000340529
0.000321006
0.000354853
0.000646473
0.00238484
0.00237693
0.00236208
0.0023411
0.00231471
0.00228352
0.00224807
0.00220885
0.00216629
0.00212077
0.00207265
0.00202226
0.0019699
0.00191587
0.00186042
0.0018038
0.00174627
0.00168804
0.00162932
0.00157033
0.00151125
0.00145226
0.00139354
0.00133525
0.00127753
0.00122053
0.00116437
0.00110919
0.00105509
0.00100217
0.000950529
0.000900249
0.000851407
0.000804071
0.000758301
0.00071415
0.000671664
0.000630886
0.000591856
0.000554623
0.000519265
0.000485923
0.000454911
0.000426998
0.000404473
0.000396265
0.000446723
0.000814773
0.00214859
0.00214142
0.00212796
0.00210897
0.00208508
0.00205686
0.00202481
0.00198938
0.00195097
0.00190994
0.00186663
0.00182135
0.0017744
0.00172605
0.00167654
0.00162613
0.00157504
0.00152349
0.00147168
0.0014198
0.00136803
0.00131653
0.00126547
0.00121498
0.0011652
0.00111626
0.00106826
0.00102131
0.000975506
0.000930935
0.000887678
0.000845807
0.000805394
0.000766503
0.000729197
0.000693541
0.000659602
0.000627454
0.000597192
0.000568938
0.00054287
0.000519265
0.000498588
0.000481738
0.000470968
0.00047491
0.000541868
0.000985807
0.00194226
0.00193574
0.00192349
0.00190622
0.0018845
0.00185888
0.0018298
0.0017977
0.00176295
0.00172589
0.00168686
0.00164614
0.00160403
0.00156077
0.00151661
0.00147179
0.00142652
0.00138101
0.00133544
0.00128999
0.00124482
0.00120008
0.00115591
0.00111244
0.00106978
0.00102804
0.000987307
0.000947681
0.000909239
0.000872055
0.000836203
0.00080175
0.000768766
0.00073732
0.000707489
0.000679358
0.000653028
0.000628626
0.000606315
0.000586316
0.000568938
0.000554623
0.000544034
0.000538248
0.00053954
0.000556156
0.000639304
0.00115782
0.00176091
0.00175496
0.00174378
0.00172802
0.00170823
0.0016849
0.00165847
0.00162934
0.00159787
0.00156439
0.00152921
0.00149262
0.00145488
0.00141625
0.00137696
0.00133723
0.00129726
0.00125724
0.00121734
0.00117772
0.00113854
0.00109991
0.00106197
0.00102481
0.000988539
0.000953245
0.000919008
0.000885903
0.000854002
0.000823372
0.00079408
0.000766197
0.000739796
0.00071496
0.000691788
0.000670395
0.000650929
0.00063358
0.000618596
0.000606315
0.000597192
0.000591856
0.000591182
0.000596453
0.000609984
0.000639568
0.000738453
0.0013298
0.00160049
0.00159504
0.00158482
0.00157042
0.00155236
0.0015311
0.00150707
0.00148063
0.00145214
0.00142192
0.00139026
0.00135744
0.00132372
0.00128933
0.0012545
0.00121944
0.00118433
0.00114933
0.00111462
0.00108033
0.00104659
0.00101351
0.000981187
0.000949724
0.000919198
0.000889685
0.000861253
0.000833969
0.000807895
0.000783098
0.000759646
0.000737615
0.00071709
0.000698176
0.000680998
0.000665715
0.000652528
0.0006417
0.00063358
0.000628626
0.000627454
0.000630886
0.000640017
0.000656335
0.000682198
0.000724887
0.000838965
0.00150115
0.00145773
0.00145274
0.00144338
0.00143022
0.00141374
0.00139438
0.00137254
0.00134858
0.00132283
0.00129562
0.00126721
0.00123789
0.00120788
0.00117742
0.00114672
0.00111597
0.00108533
0.00105496
0.001025
0.000995577
0.000966793
0.000938748
0.000911526
0.000885203
0.000859849
0.000835528
0.000812299
0.000790223
0.00076936
0.000749779
0.000731554
0.000714772
0.000699538
0.000685981
0.000674264
0.000664593
0.000657232
0.000652528
0.000650929
0.000653028
0.000659602
0.000671664
0.00069053
0.000717885
0.000756117
0.000811934
0.000940607
0.00167151
0.00132997
0.0013254
0.00131685
0.00130483
0.00128982
0.00127221
0.00125241
0.00123076
0.00120758
0.00118317
0.0011578
0.00113174
0.0011052
0.0010784
0.00105153
0.00102477
0.000998272
0.000972167
0.000946577
0.000921607
0.00089735
0.000873884
0.000851282
0.000829606
0.000808915
0.000789264
0.000770709
0.000753309
0.000737125
0.000722233
0.000708716
0.000696681
0.000686254
0.000677599
0.000670917
0.000666471
0.000664593
0.000665715
0.000670395
0.000679358
0.000693541
0.00071415
0.000742706
0.000781083
0.000831677
0.000900569
0.00104321
0.00184066
0.00121508
0.00121091
0.00120311
0.00119217
0.00117852
0.00116257
0.00114469
0.00112521
0.00110445
0.00108268
0.00106017
0.00103717
0.00101388
0.000990502
0.000967215
0.00094417
0.000921504
0.000899333
0.00087776
0.000856873
0.000836748
0.00081745
0.000799038
0.000781567
0.000765085
0.000749646
0.000735302
0.000722115
0.000710153
0.0006995
0.000690258
0.000682552
0.000676539
0.000672418
0.000670438
0.000670917
0.000674264
0.000680998
0.000691788
0.000707489
0.000729197
0.000758301
0.00079652
0.000845896
0.000908811
0.000990667
0.00114664
0.00200846
0.00111131
0.00110752
0.00110043
0.00109051
0.00107817
0.00106379
0.00104773
0.00103032
0.00101184
0.000992581
0.000972781
0.000952666
0.000932438
0.000912274
0.000892332
0.000872747
0.000853636
0.000835099
0.000817221
0.000800075
0.000783723
0.000768218
0.00075361
0.000739945
0.000727271
0.000715638
0.000705101
0.000695727
0.000687596
0.000680804
0.000675473
0.000671754
0.000669836
0.000669957
0.000672418
0.000677599
0.000685981
0.000698176
0.00071496
0.00073732
0.000766503
0.000804071
0.00085193
0.000912271
0.00098744
0.00108211
0.00125079
0.0021748
0.00101724
0.0010138
0.0010074
0.000998453
0.000987362
0.000974493
0.000960183
0.000944743
0.000928457
0.000911584
0.000894355
0.000876978
0.000859636
0.00084249
0.000825676
0.000809312
0.000793498
0.000778315
0.000763835
0.000750115
0.000737206
0.000725153
0.000713999
0.000703787
0.000694563
0.00068638
0.000679298
0.000673394
0.00066876
0.00066551
0.00066379
0.000663778
0.000665699
0.000669836
0.000676539
0.000686254
0.000699538
0.00071709
0.000739796
0.000768766
0.000805394
0.000851407
0.000908882
0.000980142
0.00106747
0.00117478
0.00135554
0.00233962
0.000931665
0.00092858
0.000922837
0.000914837
0.000904956
0.000893542
0.000880917
0.000867377
0.000853191
0.0008386
0.00082382
0.000809039
0.000794422
0.00078011
0.00076622
0.000752854
0.000740092
0.000728003
0.000716642
0.000706057
0.00069629
0.00068738
0.000679366
0.00067229
0.0006662
0.000661155
0.000657224
0.000654495
0.000653077
0.000653105
0.000654748
0.000658219
0.000663778
0.000671754
0.000682552
0.000696681
0.000714772
0.000737615
0.000766197
0.00080175
0.000845807
0.000900249
0.00096731
0.00104943
0.00114881
0.00126855
0.00146079
0.00250286
0.000853611
0.000850867
0.000845769
0.00083869
0.000829985
0.000819984
0.000808991
0.000797285
0.000785117
0.000772712
0.000760264
0.000747944
0.000735897
0.000724243
0.000713084
0.000702501
0.000692562
0.00068332
0.000674821
0.000667103
0.000660202
0.000654154
0.000648997
0.000644775
0.000641543
0.000639364
0.000638322
0.000638518
0.00064008
0.000643166
0.000647974
0.000654748
0.00066379
0.000675473
0.000690258
0.000708716
0.000731554
0.000759646
0.00079408
0.000836203
0.000887678
0.000950529
0.00102714
0.00112004
0.00123134
0.0013633
0.00156646
0.00266449
0.000782247
0.000779837
0.000775372
0.000769196
0.00076164
0.000753015
0.000743605
0.000733671
0.000723445
0.00071313
0.000702903
0.000692913
0.000683285
0.000674121
0.000665505
0.000657502
0.000650167
0.000643542
0.000637664
0.000632566
0.000628279
0.00062484
0.000622287
0.000620671
0.000620052
0.000620506
0.000622129
0.000625039
0.000629386
0.000635353
0.000643166
0.000653105
0.00066551
0.000680804
0.0006995
0.000722233
0.000749779
0.000783098
0.000823372
0.000872055
0.000930935
0.00100217
0.00108827
0.00119187
0.00131495
0.0014589
0.00167243
0.00282447
0.000716874
0.000714794
0.000710951
0.000705662
0.000699231
0.000691947
0.000684075
0.000675854
0.000667493
0.000659177
0.000651059
0.000643268
0.000635911
0.000629072
0.000622818
0.000617201
0.000612263
0.00060804
0.00060456
0.000601854
0.000599954
0.000598895
0.000598722
0.000599493
0.000601276
0.000604162
0.00060826
0.00061371
0.000620682
0.000629386
0.00064008
0.000653077
0.00066876
0.000687596
0.000710153
0.000737125
0.00076936
0.000807895
0.000854002
0.000909239
0.000975506
0.00105509
0.00115062
0.00126481
0.0013995
0.00155522
0.00177862
0.00298277
0.0006569
0.000655145
0.000651915
0.000647497
0.000642168
0.000636192
0.000629812
0.000623241
0.00061667
0.000610257
0.000604136
0.000598416
0.000593185
0.000588509
0.000584441
0.000581024
0.000578289
0.000576264
0.000574978
0.000574457
0.000574736
0.000575854
0.000577863
0.000580829
0.000584833
0.00058998
0.000596396
0.000604241
0.00061371
0.000625039
0.000638518
0.000654495
0.000673394
0.000695727
0.000722115
0.000753309
0.000790223
0.000833969
0.000885903
0.000947681
0.00102131
0.00110919
0.00121407
0.00133872
0.00148486
0.00165212
0.00188491
0.00313936
0.000601814
0.000600381
0.000597756
0.000594192
0.00058994
0.000585237
0.000580299
0.000575316
0.000570453
0.000565847
0.000561611
0.000557832
0.000554581
0.000551911
0.000549862
0.000548467
0.000547751
0.000547739
0.000548456
0.000549932
0.000552205
0.00055532
0.000559337
0.000564333
0.000570403
0.000577667
0.000586271
0.000596396
0.00060826
0.000622129
0.000638322
0.000657224
0.000679298
0.000705101
0.000735302
0.000770709
0.000812299
0.000861253
0.000919008
0.000987307
0.00106826
0.00116437
0.0012785
0.00141348
0.00157089
0.00174946
0.00199122
0.00329423
0.00055118
0.000550063
0.000548031
0.000545305
0.000542103
0.000538633
0.000535084
0.000531621
0.000528383
0.000525485
0.000523016
0.000521049
0.000519636
0.000518819
0.000518627
0.000519086
0.000520218
0.000522045
0.000524593
0.000527897
0.000531998
0.000536951
0.000542826
0.000549711
0.000557717
0.00056698
0.000577667
0.00058998
0.000604162
0.000620506
0.000639364
0.000661155
0.00068638
0.000715638
0.000749646
0.000789264
0.000835528
0.000889685
0.000953245
0.00102804
0.00111626
0.00122053
0.00134379
0.00148894
0.00165743
0.0018471
0.00209742
0.00344733
0.000504616
0.000503809
0.000502359
0.000500448
0.000498264
0.000495984
0.000493766
0.00049175
0.000490048
0.000488753
0.000487936
0.00048765
0.000487936
0.000488823
0.000490335
0.00049249
0.00049531
0.000498817
0.000503041
0.000508021
0.000513804
0.000520457
0.000528061
0.000536716
0.00054655
0.000557717
0.000570403
0.000584833
0.000601276
0.000620052
0.000641543
0.0006662
0.000694564
0.000727271
0.000765085
0.000808915
0.000859849
0.000919198
0.000988539
0.00106978
0.0011652
0.00127753
0.0014098
0.00156496
0.00174433
0.00194488
0.00220343
0.00359864
0.000461788
0.000461284
0.000460398
0.000459278
0.000458075
0.000456934
0.000455985
0.000455336
0.000455078
0.00045528
0.000455996
0.000457264
0.000459112
0.000461561
0.000464629
0.000468334
0.000472695
0.000477738
0.000483497
0.000490018
0.000497357
0.000505591
0.000514814
0.000525141
0.000536716
0.000549711
0.000564333
0.000580829
0.000599493
0.000620671
0.000644775
0.00067229
0.000703787
0.000739945
0.000781567
0.000829606
0.000885203
0.000949724
0.00102481
0.00111244
0.00121498
0.00133525
0.00147637
0.00164136
0.00183142
0.00204264
0.00230911
0.00374812
0.0004224
0.000422189
0.000421849
0.000421489
0.000421224
0.000421167
0.000421414
0.000422049
0.000423138
0.000424729
0.000426859
0.000429554
0.000432832
0.000436708
0.000441196
0.000446313
0.000452081
0.00045853
0.000465699
0.000473643
0.000482429
0.000492143
0.000502895
0.000514814
0.000528061
0.000542826
0.000559337
0.000577863
0.000598722
0.000622288
0.000648997
0.000679366
0.000713999
0.00075361
0.000799039
0.000851282
0.000911526
0.000981187
0.00106197
0.00115591
0.00126547
0.00139354
0.00154336
0.00171799
0.00191853
0.00214024
0.00241436
0.00389571
0.000386189
0.000386259
0.000386441
0.000386804
0.000387429
0.000388391
0.00038976
0.00039159
0.000393925
0.000396795
0.000400222
0.00040422
0.000408801
0.000413975
0.000419755
0.000426159
0.000433212
0.000440951
0.000449421
0.000458686
0.000468825
0.000479937
0.000492143
0.000505591
0.000520457
0.000536951
0.00055532
0.000575854
0.000598895
0.00062484
0.000654154
0.00068738
0.000725153
0.000768218
0.00081745
0.000873884
0.000938748
0.00101351
0.00109991
0.00120008
0.00131653
0.00145226
0.0016106
0.00179468
0.00200549
0.00223749
0.00251904
0.00404137
0.000352915
0.000353252
0.000353928
0.000354973
0.000356431
0.000358345
0.000360753
0.000363686
0.000367164
0.000371203
0.00037581
0.000380993
0.000386755
0.000393107
0.000400061
0.000407638
0.000415868
0.000424793
0.00043447
0.00044497
0.000456384
0.000468825
0.000482429
0.000497357
0.000513805
0.000531998
0.000552205
0.000574736
0.000599954
0.000628279
0.000660202
0.00069629
0.000737206
0.000783723
0.000836748
0.00089735
0.000966793
0.00104659
0.00113854
0.00124482
0.00136803
0.00151125
0.00167791
0.00187123
0.00209211
0.00233422
0.00262301
0.004185
0.000322363
0.000322949
0.000324086
0.000325766
0.000327996
0.000330787
0.000334148
0.000338087
0.000342606
0.000347703
0.000353379
0.000359631
0.000366461
0.000373879
0.000381899
0.000390546
0.000399856
0.000409879
0.00042068
0.000432343
0.00044497
0.000458686
0.000473643
0.000490018
0.000508021
0.000527897
0.000549932
0.000574457
0.000601854
0.000632566
0.000667103
0.000706057
0.000750115
0.000800075
0.000856873
0.000921607
0.000995577
0.00108033
0.00117772
0.00128999
0.0014198
0.00157033
0.00174511
0.00194745
0.00217819
0.00243025
0.00272613
0.00432653
0.000294331
0.000295147
0.000296709
0.000298971
0.000301906
0.000305495
0.00030972
0.000314568
0.000320023
0.000326072
0.000332706
0.000339919
0.000347712
0.000356093
0.000365081
0.000374706
0.000385012
0.000396056
0.000407914
0.00042068
0.00043447
0.000449421
0.000465699
0.000483497
0.000503041
0.000524593
0.000548456
0.000574978
0.00060456
0.000637664
0.000674821
0.000716642
0.000763835
0.000817221
0.00087776
0.000946577
0.001025
0.00111462
0.00121734
0.00133544
0.00147168
0.00162932
0.00181202
0.00202315
0.00226353
0.00252538
0.00282822
0.00446582
0.000268635
0.00026966
0.000271605
0.000274393
0.000277962
0.000282266
0.000287264
0.000292922
0.000299211
0.000306108
0.000313596
0.000321668
0.000330324
0.000339575
0.000349444
0.000359967
0.000371195
0.000383196
0.000396056
0.000409879
0.000424793
0.000440951
0.00045853
0.000477738
0.000498817
0.000522045
0.000547739
0.000576264
0.00060804
0.000643542
0.00068332
0.000728003
0.000778315
0.000835099
0.000899333
0.000972167
0.00105496
0.00114933
0.00125724
0.00138101
0.00152349
0.00168804
0.00187841
0.00209811
0.00234792
0.0026194
0.00292912
0.00460276
0.000245103
0.000246313
0.000248599
0.000251851
0.000255981
0.000260916
0.000266593
0.000272964
0.000279987
0.000287631
0.000295875
0.000304711
0.00031414
0.000324177
0.000334849
0.0003462
0.00035829
0.000371195
0.000385012
0.000399856
0.000415868
0.000433212
0.000452081
0.000472695
0.00049531
0.000520218
0.000547751
0.000578289
0.000612263
0.000650167
0.000692562
0.000740092
0.000793498
0.000853636
0.000921504
0.000998273
0.00108533
0.00118433
0.00129726
0.00142652
0.00157504
0.00174627
0.00194409
0.00217212
0.00243114
0.00271208
0.00302862
0.00473716
0.000223573
0.000224944
0.000227525
0.000231179
0.000235793
0.000241273
0.000247539
0.000254526
0.000262187
0.000270483
0.000279392
0.000288904
0.000299024
0.000309772
0.00032118
0.0003333
0.0003462
0.000359967
0.000374706
0.000390546
0.000407638
0.000426159
0.000446313
0.000468334
0.00049249
0.000519086
0.000548467
0.000581024
0.000617201
0.000657502
0.000702502
0.000752854
0.000809312
0.000872747
0.00094417
0.00102477
0.00111597
0.00121944
0.00133723
0.00147179
0.00162613
0.0018038
0.00200882
0.00224493
0.00251294
0.0028032
0.00312649
0.00486881
0.000203895
0.000205401
0.00020823
0.000212223
0.000217246
0.000223185
0.000229949
0.000237462
0.000245668
0.000254527
0.000264015
0.000274124
0.000284862
0.000296254
0.000308341
0.00032118
0.000334849
0.000349444
0.000365081
0.000381899
0.000400061
0.000419755
0.000441196
0.000464629
0.000490335
0.000518627
0.000549862
0.000584441
0.000622818
0.000665505
0.000713084
0.000766221
0.000825676
0.000892332
0.000967215
0.00105153
0.00114672
0.0012545
0.00137696
0.00151661
0.00167654
0.00186042
0.00207238
0.00231632
0.00259308
0.00289248
0.00322249
0.00499748
0.00018593
0.000187546
0.000190576
0.000194845
0.0002002
0.000206517
0.000213691
0.000221642
0.000230307
0.000239646
0.000249634
0.000260268
0.00027156
0.000283539
0.000296254
0.000309772
0.000324177
0.000339575
0.000356093
0.000373879
0.000393107
0.000413975
0.000436708
0.000461561
0.000488824
0.000518819
0.000551911
0.000588509
0.000629072
0.000674121
0.000724243
0.00078011
0.00084249
0.000912274
0.000990502
0.0010784
0.00117742
0.00128933
0.00141625
0.00156077
0.00172605
0.00191587
0.00213451
0.00238602
0.00267128
0.00297965
0.00331634
0.00512286
0.00016955
0.000171251
0.000174436
0.000178918
0.000184534
0.000191148
0.000198651
0.000206955
0.000215999
0.000225741
0.00023616
0.000247255
0.000259042
0.00027156
0.000284862
0.000299024
0.00031414
0.000330324
0.000347712
0.000366461
0.000386756
0.000408801
0.000432832
0.000459112
0.000487936
0.000519636
0.000554581
0.000593185
0.000635912
0.000683285
0.000735897
0.000794422
0.000859636
0.000932438
0.00101388
0.0011052
0.00120788
0.00132372
0.00145488
0.00160403
0.0017744
0.0019699
0.00219495
0.00245374
0.00274725
0.0030644
0.00340771
0.00524461
0.00015464
0.0001564
0.000159697
0.000164333
0.00017014
0.000176977
0.00018473
0.000193313
0.000202662
0.000212737
0.000223523
0.000235021
0.000247255
0.000260268
0.000274124
0.000288904
0.000304711
0.000321668
0.000339919
0.000359631
0.000380993
0.00040422
0.000429554
0.000457264
0.000487651
0.000521049
0.000557832
0.000598416
0.000643269
0.000692913
0.000747944
0.000809039
0.000876978
0.000952666
0.00103717
0.00113174
0.00123789
0.00135744
0.00149262
0.00164614
0.00182135
0.00202226
0.00225343
0.00251921
0.00282068
0.00314637
0.00349626
0.00536232
0.000141096
0.000142893
0.00014626
0.000150996
0.000156929
0.00016392
0.000171853
0.000180643
0.000190229
0.000200576
0.000211671
0.000223523
0.00023616
0.000249634
0.000264015
0.000279392
0.000295875
0.000313596
0.000332706
0.000353379
0.00037581
0.000400222
0.000426859
0.000455996
0.000487936
0.000523016
0.000561611
0.000604136
0.000651059
0.000702903
0.000760264
0.00082382
0.000894355
0.000972781
0.00106017
0.0011578
0.00126721
0.00139026
0.00152921
0.00168686
0.00186663
0.00207265
0.00230963
0.00258209
0.00289122
0.00322521
0.00358157
0.00547552
0.000128831
0.000130645
0.000134044
0.000138829
0.000144832
0.000151912
0.000159961
0.000168895
0.000178659
0.000189222
0.000200576
0.000212737
0.000225741
0.000239646
0.000254527
0.000270483
0.000287631
0.000306108
0.000326072
0.000347704
0.000371203
0.000396795
0.000424729
0.00045528
0.000488753
0.000525485
0.000565847
0.000610257
0.000659177
0.000713131
0.000772712
0.0008386
0.000911584
0.000992581
0.00108268
0.00118317
0.00129562
0.00142192
0.00156439
0.00172589
0.00190994
0.00212077
0.00236324
0.00264205
0.00295849
0.00330048
0.00366319
0.00558364
0.000117774
0.000119586
0.000122984
0.000127775
0.000133795
0.00014091
0.000149018
0.000158041
0.000167929
0.000178659
0.000190229
0.000202662
0.000215999
0.000230307
0.000245668
0.000262187
0.000279987
0.000299211
0.000320023
0.000342606
0.000367164
0.000393925
0.000423138
0.000455078
0.000490048
0.000528383
0.000570453
0.00061667
0.000667494
0.000723445
0.000785118
0.000853191
0.000928457
0.00101184
0.00110445
0.00120758
0.00132283
0.00145214
0.00159787
0.00176295
0.00195097
0.00216629
0.00241391
0.0026987
0.00302208
0.00337171
0.00374059
0.00568605
0.000107871
0.000109665
0.000113035
0.000117794
0.000123788
0.000130891
0.000139009
0.000148073
0.000158041
0.000168895
0.000180643
0.000193313
0.000206955
0.000221642
0.000237462
0.000254527
0.000272964
0.000292922
0.000314568
0.000338087
0.000363686
0.00039159
0.000422049
0.000455336
0.00049175
0.000531622
0.000575316
0.000623241
0.000675854
0.000733672
0.000797285
0.000867378
0.000944743
0.00103032
0.00112521
0.00123076
0.00134858
0.00148063
0.00162934
0.0017977
0.00198938
0.00220885
0.00246126
0.00275162
0.00308151
0.00343837
0.00381318
0.005782
9.90859e-05
0.000100851
0.000104171
0.000108869
0.000114801
0.000121855
0.000129944
0.000139009
0.000149018
0.000159961
0.000171853
0.00018473
0.000198651
0.000213691
0.000229949
0.000247539
0.000266593
0.000287264
0.000309721
0.000334148
0.000360753
0.00038976
0.000421414
0.000455985
0.000493767
0.000535085
0.000580299
0.000629812
0.000684076
0.000743605
0.000808991
0.000880917
0.000960183
0.00104773
0.00114469
0.00125241
0.00137254
0.00150707
0.00165847
0.0018298
0.00202481
0.00224807
0.00250487
0.00280036
0.00313627
0.00349987
0.00388028
0.00587063
9.14049e-05
9.31329e-05
9.63868e-05
0.000101003
0.000106849
0.000113825
0.000121855
0.000130891
0.000140911
0.000151912
0.00016392
0.000176977
0.000191148
0.000206517
0.000223185
0.000241273
0.000260916
0.000282266
0.000305495
0.000330787
0.000358345
0.000388391
0.000421167
0.000456934
0.000495984
0.000538633
0.000585237
0.000636192
0.000691948
0.000753015
0.000819984
0.000893542
0.000974493
0.00106379
0.00116257
0.00127221
0.00139438
0.0015311
0.0016849
0.00185888
0.00205686
0.00228352
0.00254426
0.00284439
0.00318577
0.00355553
0.00394114
0.00595096
8.48343e-05
8.65205e-05
8.97006e-05
9.42229e-05
9.99689e-05
0.000106849
0.000114801
0.000123788
0.000133795
0.000144832
0.000156929
0.00017014
0.000184534
0.0002002
0.000217246
0.000235793
0.000255981
0.000277962
0.000301906
0.000327996
0.000356431
0.000387429
0.000421225
0.000458076
0.000498264
0.000542103
0.00058994
0.000642168
0.000699231
0.00076164
0.000829986
0.000904956
0.000987362
0.00107817
0.00117852
0.00128982
0.00141374
0.00155236
0.00170823
0.0018845
0.00208508
0.00231471
0.0025789
0.00288313
0.00322934
0.00360459
0.00399488
0.00602186
7.94037e-05
8.10479e-05
8.41537e-05
8.85808e-05
9.42229e-05
0.000101003
0.000108869
0.000117794
0.000127775
0.000138829
0.000150996
0.000164333
0.000178918
0.000194845
0.000212223
0.000231179
0.000251851
0.000274393
0.000298971
0.000325766
0.000354973
0.000386804
0.000421489
0.000459278
0.000500448
0.000545305
0.000594192
0.000647497
0.000705662
0.000769196
0.000838691
0.000914837
0.000998453
0.00109051
0.00119217
0.00130483
0.00143022
0.00157042
0.00172802
0.00190622
0.00210897
0.0023411
0.00260822
0.0029159
0.00326623
0.00364617
0.00404049
0.00608203
7.51677e-05
7.67742e-05
7.9813e-05
8.41537e-05
8.97006e-05
9.63868e-05
0.000104171
0.000113035
0.000122984
0.000134044
0.00014626
0.000159697
0.000174436
0.000190576
0.00020823
0.000227525
0.000248599
0.000271606
0.000296709
0.000324086
0.000353928
0.000386441
0.000421849
0.000460398
0.000502359
0.000548032
0.000597756
0.000651916
0.000710951
0.000775372
0.000845769
0.000922837
0.0010074
0.00110043
0.00120311
0.00131685
0.00144338
0.00158482
0.00174378
0.00192349
0.00212796
0.00236208
0.00263152
0.00294196
0.00329557
0.00367926
0.00407685
0.00612998
7.22098e-05
7.37872e-05
7.67742e-05
8.10479e-05
8.65205e-05
9.31329e-05
0.000100851
0.000109665
0.000119586
0.000130645
0.000142893
0.0001564
0.000171251
0.000187546
0.000205401
0.000224944
0.000246313
0.00026966
0.000295148
0.000322949
0.000353252
0.000386259
0.000422189
0.000461284
0.000503809
0.000550063
0.000600381
0.000655145
0.000714795
0.000779837
0.000850867
0.00092858
0.0010138
0.00110752
0.00121091
0.0013254
0.00145274
0.00159504
0.00175496
0.00193574
0.00214142
0.00237693
0.00264801
0.00296041
0.00331635
0.00370273
0.00410266
0.00616401
7.06487e-05
7.22098e-05
7.51677e-05
7.94037e-05
8.48343e-05
9.14049e-05
9.90859e-05
0.000107871
0.000117774
0.000128831
0.000141096
0.00015464
0.00016955
0.00018593
0.000203895
0.000223573
0.000245103
0.000268635
0.000294331
0.000322363
0.000352915
0.000386189
0.0004224
0.000461788
0.000504616
0.00055118
0.000601814
0.0006569
0.000716875
0.000782247
0.000853611
0.000931665
0.00101724
0.00111131
0.00121508
0.00132997
0.00145773
0.0016005
0.00176091
0.00194226
0.00214859
0.00238484
0.0026568
0.00297024
0.00332743
0.00371523
0.00411643
0.00618216
)
;

boundaryField
{
    inlet
    {
        type            cyclic;
    }
    outlet
    {
        type            cyclic;
    }
    walls
    {
        lowReCorrection 1;
        blending        stepwise;
        n               2;
        type            epsilonWallFunction;
        value           nonuniform List<scalar> 
96
(
1.21652e-05
8.68385e-05
0.000196603
0.000331675
0.00048387
0.000646473
0.000814773
0.000985807
0.00115782
0.0013298
0.00150115
0.00167151
0.00184066
0.00200846
0.0021748
0.00233962
0.00250286
0.00266449
0.00282447
0.00298277
0.00313936
0.00329423
0.00344733
0.00359864
0.00374812
0.00389571
0.00404137
0.004185
0.00432653
0.00446582
0.00460276
0.00473716
0.00486881
0.00499748
0.00512286
0.00524461
0.00536232
0.00547552
0.00558364
0.00568605
0.005782
0.00587063
0.00595096
0.00602186
0.00608203
0.00612998
0.00616401
0.00618216
0.00618216
0.00616401
0.00612998
0.00608203
0.00602186
0.00595096
0.00587063
0.005782
0.00568605
0.00558364
0.00547552
0.00536232
0.00524461
0.00512286
0.00499748
0.00486881
0.00473716
0.00460276
0.00446583
0.00432653
0.004185
0.00404137
0.00389572
0.00374812
0.00359864
0.00344733
0.00329423
0.00313937
0.00298277
0.00282447
0.00266449
0.00250286
0.00233962
0.0021748
0.00200846
0.00184066
0.00167151
0.00150115
0.0013298
0.00115782
0.000985807
0.000814773
0.000646473
0.00048387
0.000331675
0.000196603
8.68385e-05
1.21652e-05
)
;
    }
    symPlanes
    {
        type            symmetry;
    }
}


// ************************************************************************* //
