/*--------------------------------*- C++ -*----------------------------------*\
| =========                 |                                                 |
| \\      /  F ield         | OpenFOAM: The Open Source CFD Toolbox           |
|  \\    /   O peration     | Version:  2112                                  |
|   \\  /    A nd           | Website:  www.openfoam.com                      |
|    \\/     M anipulation  |                                                 |
\*---------------------------------------------------------------------------*/
FoamFile
{
    version     2.0;
    format      ascii;
    arch        "LSB;label=32;scalar=64";
    class       volScalarField;
    location    "11000";
    object      k;
}
// * * * * * * * * * * * * * * * * * * * * * * * * * * * * * * * * * * * * * //

dimensions      [0 2 -2 0 0 0 0];

internalField   nonuniform List<scalar> 
2304
(
1.96181e-05
1.95631e-05
1.94596e-05
1.93132e-05
1.91283e-05
1.89091e-05
1.86587e-05
1.83803e-05
1.80762e-05
1.77489e-05
1.74001e-05
1.70318e-05
1.66455e-05
1.62426e-05
1.58244e-05
1.53919e-05
1.49461e-05
1.44877e-05
1.40173e-05
1.35348e-05
1.304e-05
1.2532e-05
1.20108e-05
1.14776e-05
1.09326e-05
1.03757e-05
9.80687e-06
9.22682e-06
8.63704e-06
8.03905e-06
7.43439e-06
6.82482e-06
6.21255e-06
5.60042e-06
4.99204e-06
4.39189e-06
3.8055e-06
3.23939e-06
2.70096e-06
2.198e-06
1.73792e-06
1.3269e-06
9.69189e-07
6.66839e-07
4.2024e-07
2.29102e-07
9.3982e-08
1.96879e-08
1.73285e-05
1.72642e-05
1.71435e-05
1.69733e-05
1.67595e-05
1.65075e-05
1.62219e-05
1.59069e-05
1.55662e-05
1.5203e-05
1.48204e-05
1.44212e-05
1.40077e-05
1.35823e-05
1.3147e-05
1.27036e-05
1.22536e-05
1.17984e-05
1.13389e-05
1.08753e-05
1.04071e-05
9.93157e-06
9.44917e-06
8.96291e-06
8.47385e-06
7.98143e-06
7.48441e-06
6.98345e-06
6.48105e-06
5.97894e-06
5.47803e-06
4.97898e-06
4.48262e-06
3.99022e-06
3.5035e-06
3.02485e-06
2.55779e-06
2.10753e-06
1.68142e-06
1.28902e-06
9.41292e-07
6.48269e-07
4.16042e-07
2.44613e-07
1.2826e-07
5.83238e-08
2.75695e-08
9.39819e-08
0.0001072
0.000106789
0.000106016
0.000104927
0.00010356
0.00010195
0.000100126
9.8116e-05
9.59438e-05
9.36313e-05
9.11981e-05
8.86623e-05
8.60402e-05
8.33466e-05
8.05946e-05
7.7797e-05
7.49637e-05
7.21035e-05
6.92226e-05
6.6323e-05
6.33999e-05
6.04352e-05
5.74311e-05
5.44093e-05
5.13773e-05
4.83308e-05
4.52603e-05
4.21697e-05
3.90762e-05
3.5991e-05
3.29192e-05
2.98637e-05
2.68282e-05
2.3819e-05
2.0845e-05
1.79192e-05
1.50615e-05
1.23036e-05
9.69207e-06
7.29046e-06
5.17384e-06
3.41308e-06
2.05184e-06
1.08952e-06
4.82404e-07
1.61584e-07
5.83238e-08
2.29102e-07
0.00037777
0.0003764
0.00037383
0.000370204
0.000365647
0.000360272
0.000354176
0.000347447
0.000340161
0.00033239
0.000324196
0.000315638
0.000306767
0.000297634
0.000288278
0.000278743
0.00026906
0.000259258
0.000249358
0.000239364
0.00022926
0.000218975
0.000208514
0.000197957
0.000187327
0.000176608
0.00016576
0.000154793
0.000143771
0.000132733
0.000121696
0.000110668
9.96602e-05
8.86951e-05
7.78041e-05
6.70331e-05
5.64543e-05
4.61844e-05
3.63993e-05
2.73444e-05
1.93204e-05
1.26249e-05
7.45638e-06
3.83636e-06
1.60536e-06
4.82404e-07
1.2826e-07
4.2024e-07
0.000830885
0.000828266
0.000823346
0.000816395
0.000807646
0.000797299
0.000785533
0.000772505
0.000758352
0.000743199
0.000727159
0.000710333
0.000692814
0.000674687
0.000656025
0.000636905
0.00061738
0.0005975
0.0005773
0.000556779
0.000535895
0.000514466
0.000492486
0.000470127
0.000447428
0.000424336
0.000400727
0.000376602
0.0003521
0.000327292
0.000302194
0.000276804
0.000251128
0.000225199
0.000199073
0.000172841
0.000146665
0.000120826
9.57768e-05
7.21894e-05
5.09535e-05
3.3033e-05
1.91676e-05
9.57065e-06
3.83636e-06
1.08952e-06
2.44613e-07
6.66839e-07
0.0013125
0.001309
0.00130242
0.00129312
0.0012814
0.00126752
0.0012517
0.00123415
0.00121503
0.00119451
0.00117273
0.0011498
0.00112585
0.00110098
0.00107528
0.00104883
0.0010217
0.000993946
0.000965603
0.000936651
0.000907015
0.00087637
0.000844666
0.000812161
0.00077888
0.000744698
0.000709341
0.000672739
0.000635083
0.000596423
0.000556702
0.000515824
0.000473696
0.000430266
0.000385514
0.000339464
0.000292259
0.000244283
0.000196289
0.000149591
0.000106209
6.86812e-05
3.932e-05
1.91676e-05
7.45638e-06
2.05184e-06
4.16042e-07
9.69189e-07
0.00170788
0.00170393
0.00169649
0.00168598
0.00167272
0.00165701
0.0016391
0.00161921
0.00159754
0.00157425
0.00154951
0.00152345
0.00149619
0.00146785
0.00143851
0.00140829
0.00137724
0.00134541
0.00131285
0.0012795
0.00124527
0.00120975
0.00117283
0.00113482
0.00109572
0.00105533
0.00101321
0.00096917
0.000923432
0.000875958
0.000826544
0.000774919
0.000720774
0.000663844
0.000603856
0.00054054
0.000473714
0.000403525
0.000330632
0.000256689
0.000184942
0.000120425
6.86812e-05
3.3033e-05
1.26249e-05
3.41308e-06
6.48269e-07
1.3269e-06
0.00200661
0.00200241
0.00199453
0.00198337
0.00196931
0.00195264
0.00193364
0.00191254
0.00188955
0.00186486
0.00183861
0.00181097
0.00178206
0.001752
0.00172088
0.00168882
0.00165588
0.00162211
0.00158754
0.00155212
0.00151575
0.00147828
0.0014396
0.00139973
0.00135862
0.00131604
0.0012714
0.00122443
0.00117536
0.00112402
0.00107003
0.00101295
0.000952201
0.000887276
0.00081759
0.000742476
0.000661233
0.000573515
0.000479424
0.00038023
0.0002796
0.000184942
0.000106209
5.09535e-05
1.93204e-05
5.17384e-06
9.41292e-07
1.73792e-06
0.00222309
0.0022188
0.00221073
0.00219933
0.00218495
0.00216791
0.00214851
0.00212699
0.00210355
0.00207839
0.00205169
0.00202359
0.00199424
0.00196376
0.00193225
0.00189983
0.00186656
0.0018325
0.00179768
0.00176205
0.00172548
0.0016879
0.00164919
0.00160924
0.00156803
0.00152529
0.00148054
0.00143351
0.00138413
0.00133209
0.00127683
0.00121773
0.00115398
0.00108484
0.00100948
0.000926863
0.000835818
0.000735522
0.000625445
0.000506043
0.00038023
0.000256689
0.000149591
7.21893e-05
2.73444e-05
7.29046e-06
1.28902e-06
2.198e-06
0.00237522
0.00237093
0.00236285
0.00235143
0.00233705
0.00232004
0.00230068
0.00227924
0.00225593
0.00223096
0.0022045
0.00217674
0.0021478
0.00211784
0.00208693
0.00205524
0.0020228
0.00198968
0.00195594
0.00192147
0.00188617
0.00184998
0.00181278
0.00177436
0.00173469
0.00169348
0.00165022
0.00160475
0.00155677
0.00150574
0.00145093
0.00139155
0.00132663
0.00125529
0.00117646
0.00108886
0.000991081
0.000881715
0.00075988
0.000625445
0.000479424
0.000330632
0.000196289
9.57768e-05
3.63993e-05
9.69206e-06
1.68142e-06
2.70096e-06
0.00247889
0.00247465
0.00246668
0.00245542
0.00244126
0.00242454
0.00240555
0.00238456
0.00236181
0.00233752
0.00231188
0.00228506
0.00225722
0.00222853
0.00219905
0.00216897
0.00213832
0.00210715
0.00207553
0.00204333
0.00201043
0.00197678
0.00194224
0.00190651
0.00186955
0.00183103
0.00179052
0.00174762
0.00170185
0.00165253
0.00159883
0.00153988
0.0014748
0.00140251
0.00132171
0.00123095
0.00112858
0.00101259
0.000881715
0.000735522
0.000573515
0.000403524
0.000244283
0.000120826
4.61844e-05
1.23036e-05
2.10753e-06
3.23939e-06
0.00254636
0.00254223
0.00253446
0.0025235
0.00250976
0.00249355
0.00247522
0.00245503
0.00243324
0.00241008
0.00238576
0.00236048
0.00233438
0.00230767
0.00228036
0.0022527
0.00222467
0.00219631
0.00216766
0.00213859
0.00210894
0.00207866
0.00204756
0.00201542
0.00198199
0.00194683
0.00190947
0.00186938
0.00182597
0.00177845
0.00172606
0.00166797
0.00160315
0.00153037
0.00144824
0.00135521
0.00124953
0.00112858
0.000991081
0.000835818
0.000661233
0.000473714
0.000292258
0.000146665
5.64542e-05
1.50615e-05
2.55779e-06
3.80549e-06
0.0025866
0.00258262
0.00257515
0.00256464
0.0025515
0.00253606
0.00251867
0.00249964
0.00247921
0.00245767
0.00243521
0.00241206
0.00238835
0.00236429
0.00233989
0.00231535
0.00229063
0.00226575
0.00224074
0.00221547
0.0021898
0.00216354
0.00213642
0.00210813
0.00207836
0.00204662
0.00201233
0.00197489
0.00193359
0.00188779
0.00183673
0.00177949
0.00171492
0.00164176
0.00155856
0.00146369
0.00135521
0.00123095
0.00108886
0.000926862
0.000742476
0.00054054
0.000339464
0.000172841
6.7033e-05
1.79192e-05
3.02485e-06
4.39189e-06
0.00260606
0.00260229
0.00259523
0.00258533
0.002573
0.0025586
0.0025425
0.00252501
0.00250641
0.00248701
0.00246698
0.00244657
0.00242588
0.0024051
0.00238416
0.0023633
0.0023425
0.00232174
0.00230094
0.00227991
0.00225846
0.00223635
0.00221324
0.00218878
0.00216253
0.00213396
0.0021024
0.00206719
0.00202778
0.00198352
0.00193358
0.00187697
0.00181253
0.00173897
0.00165485
0.00155856
0.00144824
0.00132171
0.00117646
0.00100948
0.00081759
0.000603856
0.000385514
0.000199072
7.78041e-05
2.0845e-05
3.50349e-06
4.99204e-06
0.00260942
0.00260593
0.00259942
0.00259032
0.00257906
0.00256602
0.00255158
0.00253609
0.00251983
0.0025031
0.00248607
0.00246894
0.00245176
0.00243473
0.00241786
0.00240122
0.00238474
0.00236835
0.00235193
0.00233526
0.00231807
0.00230005
0.00228082
0.00225992
0.00223686
0.00221102
0.00218169
0.00214844
0.00211066
0.00206761
0.00201847
0.00196225
0.0018978
0.00182379
0.00173897
0.00164176
0.00153037
0.00140251
0.00125529
0.00108484
0.000887275
0.000663844
0.000430266
0.000225199
8.8695e-05
2.3819e-05
3.99022e-06
5.60042e-06
0.00260015
0.00259702
0.0025912
0.00258313
0.00257325
0.00256194
0.0025496
0.00253658
0.00252315
0.00250958
0.00249598
0.00248257
0.00246942
0.00245661
0.00244409
0.00243189
0.00241991
0.00240802
0.00239603
0.00238368
0.00237062
0.00235648
0.0023408
0.00232307
0.0023027
0.00227905
0.0022517
0.00222008
0.00218353
0.00214134
0.00209269
0.00203664
0.00197207
0.0018978
0.00181253
0.00171492
0.00160315
0.0014748
0.00132663
0.00115398
0.000952201
0.000720774
0.000473696
0.000251128
9.96602e-05
2.68282e-05
4.48262e-06
6.21255e-06
0.00258087
0.0025782
0.00257327
0.00256649
0.00255833
0.00254914
0.00253934
0.00252923
0.00251902
0.00250899
0.00249926
0.00248997
0.00248112
0.00247274
0.00246477
0.00245715
0.00244974
0.00244233
0.0024347
0.00242648
0.0024173
0.00240668
0.0023941
0.00237901
0.00236084
0.00233916
0.00231342
0.00228304
0.00224737
0.0022057
0.00215726
0.00210125
0.00203664
0.00196225
0.00187697
0.00177949
0.00166797
0.00153988
0.00139155
0.00121773
0.00101295
0.000774919
0.000515824
0.000276804
0.000110668
2.98637e-05
4.97898e-06
6.82482e-06
0.0025537
0.00255159
0.00254775
0.00254256
0.00253645
0.00252977
0.00252285
0.00251595
0.00250933
0.00250319
0.00249761
0.00249266
0.00248832
0.00248454
0.00248121
0.0024782
0.00247531
0.00247228
0.00246877
0.00246441
0.0024587
0.00245114
0.00244116
0.00242829
0.00241206
0.00239198
0.00236749
0.00233802
0.00230293
0.00226157
0.00221326
0.00215726
0.00209269
0.00201847
0.00193358
0.00183673
0.00172606
0.00159883
0.00145093
0.00127683
0.00107003
0.000826544
0.000556702
0.000302194
0.000121696
3.29192e-05
5.47802e-06
7.43439e-06
0.00252036
0.00251893
0.00251638
0.00251305
0.00250928
0.00250534
0.00250157
0.0024982
0.00249543
0.0024934
0.00249217
0.00249174
0.00249204
0.00249293
0.00249425
0.00249579
0.00249727
0.00249837
0.00249868
0.00249777
0.00249509
0.00249007
0.00248232
0.00247137
0.00245675
0.00243792
0.00241437
0.00238554
0.00235086
0.00230974
0.00226157
0.0022057
0.00214134
0.00206761
0.00198352
0.00188778
0.00177845
0.00165253
0.00150574
0.00133209
0.00112402
0.000875958
0.000596423
0.000327292
0.000132733
3.5991e-05
5.97893e-06
8.03904e-06
0.00248229
0.00248163
0.00248052
0.00247919
0.00247793
0.00247697
0.00247658
0.00247695
0.00247822
0.0024805
0.00248377
0.00248798
0.00249296
0.00249852
0.0025044
0.00251031
0.00251592
0.00252082
0.00252456
0.00252664
0.00252647
0.00252369
0.00251786
0.00250851
0.00249516
0.0024773
0.00245445
0.0024261
0.00239174
0.00235086
0.00230293
0.00224737
0.00218353
0.00211066
0.00202778
0.00193359
0.00182597
0.00170185
0.00155677
0.00138413
0.00117536
0.000923432
0.000635083
0.000352099
0.000143771
3.90762e-05
6.48104e-06
8.63703e-06
0.00244048
0.00244064
0.00244106
0.00244187
0.00244329
0.00244549
0.00244865
0.00245293
0.00245841
0.00246512
0.00247298
0.00248186
0.0024915
0.00250161
0.00251187
0.00252191
0.00253131
0.00253962
0.00254633
0.00255091
0.002553
0.00255215
0.00254792
0.00253986
0.00252751
0.0025104
0.00248809
0.00246013
0.0024261
0.00238554
0.00233802
0.00228304
0.00222008
0.00214844
0.00206719
0.00197489
0.00186938
0.00174762
0.00160475
0.00143351
0.00122443
0.000969169
0.000672739
0.000376602
0.000154793
4.21696e-05
6.98345e-06
9.22682e-06
0.00239566
0.00239668
0.00239871
0.00240178
0.00240601
0.0024115
0.00241838
0.0024267
0.00243649
0.00244769
0.00246017
0.00247366
0.00248785
0.00250233
0.00251671
0.00253053
0.00254334
0.00255461
0.00256386
0.0025707
0.00257472
0.00257548
0.00257257
0.00256555
0.00255399
0.00253749
0.00251565
0.00248809
0.00245445
0.00241437
0.00236749
0.00231342
0.0022517
0.00218169
0.0021024
0.00201233
0.00190947
0.00179052
0.00165022
0.00148054
0.0012714
0.00101321
0.000709341
0.000400727
0.00016576
4.52603e-05
7.48441e-06
9.80686e-06
0.00234838
0.00235031
0.00235401
0.00235944
0.0023666
0.00237551
0.0023862
0.00239865
0.0024128
0.0024285
0.00244551
0.0024635
0.00248204
0.00250063
0.0025188
0.00253602
0.00255179
0.00256562
0.00257715
0.00258595
0.00259161
0.00259373
0.0025919
0.00258573
0.00257483
0.00255886
0.00253749
0.0025104
0.0024773
0.00243792
0.00239198
0.00233916
0.00227905
0.00221102
0.00213396
0.00204661
0.00194683
0.00183103
0.00169348
0.00152529
0.00131604
0.00105533
0.000744698
0.000424336
0.000176608
4.83308e-05
7.98143e-06
1.03757e-05
0.00229913
0.00230198
0.00230743
0.0023153
0.00232548
0.0023379
0.00235246
0.00236907
0.00238754
0.00240766
0.00242907
0.00245135
0.00247398
0.00249635
0.00251792
0.00253811
0.00255647
0.00257261
0.00258612
0.0025966
0.00260367
0.00260692
0.002606
0.00260056
0.00259026
0.00257483
0.00255399
0.00252751
0.00249516
0.00245675
0.00241206
0.00236084
0.0023027
0.00223686
0.00216253
0.00207836
0.00198199
0.00186955
0.00173469
0.00156803
0.00135862
0.00109572
0.00077888
0.000447428
0.000187327
5.13773e-05
8.47384e-06
1.09326e-05
0.00224829
0.00225211
0.00225936
0.00226972
0.00228299
0.00229894
0.00231739
0.00233811
0.00236082
0.0023852
0.0024108
0.0024371
0.00246348
0.00248926
0.00251381
0.00253661
0.0025573
0.00257546
0.0025907
0.00260263
0.00261089
0.00261513
0.00261501
0.00261024
0.00260056
0.00258573
0.00256555
0.00253986
0.00250851
0.00247137
0.00242829
0.00237901
0.00232307
0.00225992
0.00218878
0.00210813
0.00201542
0.00190651
0.00177436
0.00160924
0.00139973
0.00113482
0.00081216
0.000470126
0.000197957
5.44093e-05
8.9629e-06
1.14776e-05
0.00219624
0.00220105
0.00221011
0.00222301
0.00223937
0.00225885
0.00228113
0.00230586
0.00233265
0.00236106
0.00239056
0.00242056
0.00245032
0.00247908
0.00250624
0.00253139
0.00255414
0.00257407
0.00259082
0.00260402
0.00261334
0.00261845
0.00261909
0.00261501
0.002606
0.0025919
0.00257257
0.00254792
0.00251786
0.00248232
0.00244116
0.0023941
0.0023408
0.00228082
0.00221324
0.00213642
0.00204756
0.00194224
0.00181278
0.00164919
0.0014396
0.00117283
0.000844666
0.000492486
0.000208514
5.7431e-05
9.44916e-06
1.20108e-05
0.00214328
0.00214907
0.00215997
0.00217539
0.00219481
0.00221775
0.00224375
0.00227232
0.00230296
0.00233513
0.0023682
0.00240151
0.00243423
0.00246557
0.00249508
0.00252232
0.00254689
0.0025684
0.00258648
0.00260081
0.00261109
0.00261704
0.00261845
0.00261513
0.00260692
0.00259373
0.00257548
0.00255215
0.00252369
0.00249007
0.00245114
0.00240668
0.00235648
0.00230005
0.00223635
0.00216354
0.00207866
0.00197678
0.00184998
0.0016879
0.00147828
0.00120974
0.00087637
0.000514466
0.000218975
6.04351e-05
9.93156e-06
1.2532e-05
0.00208968
0.00209645
0.00210916
0.00212705
0.00214945
0.00217573
0.00220528
0.00223747
0.00227168
0.00230726
0.00234352
0.00237971
0.00241497
0.00244861
0.00248021
0.0025093
0.0025355
0.0025584
0.00257769
0.00259307
0.00260427
0.00261109
0.00261334
0.00261089
0.00260367
0.00259161
0.00257472
0.002553
0.00252647
0.00249509
0.0024587
0.0024173
0.00237062
0.00231807
0.00225846
0.0021898
0.00210894
0.00201043
0.00188617
0.00172548
0.00151575
0.00124527
0.000907014
0.000535894
0.00022926
6.33999e-05
1.04071e-05
1.304e-05
0.00203565
0.00204338
0.00205784
0.00207812
0.00210338
0.00213282
0.00216568
0.00220121
0.00223867
0.0022773
0.00231634
0.002355
0.00239243
0.00242809
0.00246153
0.00249227
0.00251992
0.00254411
0.00256453
0.00258092
0.00259307
0.00260081
0.00260402
0.00260263
0.0025966
0.00258595
0.0025707
0.00255091
0.00252664
0.00249777
0.00246441
0.00242648
0.00238368
0.00233526
0.00227991
0.00221547
0.00213859
0.00204333
0.00192147
0.00176205
0.00155212
0.0012795
0.000936651
0.000556779
0.000239364
6.63229e-05
1.08753e-05
1.35348e-05
0.00198139
0.00199003
0.00200616
0.00202869
0.00205663
0.002089
0.00212491
0.00216347
0.00220382
0.00224512
0.00228654
0.00232728
0.00236656
0.00240396
0.00243901
0.00247123
0.0025002
0.00252558
0.0025471
0.00256453
0.00257769
0.00258648
0.00259082
0.0025907
0.00258612
0.00257715
0.00256386
0.00254633
0.00252456
0.00249868
0.00246877
0.0024347
0.00239603
0.00235193
0.00230094
0.00224074
0.00216766
0.00207553
0.00195594
0.00179768
0.00158754
0.00131285
0.000965602
0.0005773
0.000249358
6.92226e-05
1.13389e-05
1.40173e-05
0.00192703
0.00193652
0.0019542
0.00197883
0.00200922
0.00204426
0.0020829
0.00212414
0.00216702
0.00221062
0.00225407
0.00229655
0.00233738
0.00237625
0.00241269
0.00244622
0.00247642
0.00250296
0.00252558
0.00254411
0.0025584
0.0025684
0.00257407
0.00257546
0.00257261
0.00256562
0.00255461
0.00253962
0.00252082
0.00249837
0.00247228
0.00244233
0.00240802
0.00236835
0.00232174
0.00226575
0.00219631
0.00210715
0.00198968
0.0018325
0.00162211
0.00134541
0.000993946
0.0005975
0.000259258
7.21034e-05
1.17984e-05
1.44877e-05
0.00187269
0.00188296
0.00190205
0.00192856
0.00196114
0.00199855
0.00203959
0.00208316
0.0021282
0.00217374
0.0022189
0.00226285
0.00230499
0.00234506
0.00238269
0.00241738
0.00244873
0.00247642
0.0025002
0.00251992
0.0025355
0.00254689
0.00255414
0.0025573
0.00255647
0.00255179
0.00254334
0.00253131
0.00251592
0.00249727
0.00247531
0.00244974
0.00241991
0.00238474
0.0023425
0.00229063
0.00222467
0.00213832
0.0020228
0.00186656
0.00165588
0.00137724
0.0010217
0.00061738
0.00026906
7.49636e-05
1.22536e-05
1.49461e-05
0.00181847
0.00182943
0.00184976
0.00187791
0.0019124
0.00195185
0.00199493
0.00204046
0.00208731
0.00213448
0.00218106
0.00222628
0.00226955
0.00231061
0.00234922
0.00238494
0.00241738
0.00244622
0.00247123
0.00249227
0.0025093
0.00252232
0.00253139
0.00253661
0.00253811
0.00253602
0.00253053
0.00252191
0.00251031
0.00249579
0.0024782
0.00245715
0.00243189
0.00240122
0.0023633
0.00231535
0.0022527
0.00216897
0.00205524
0.00189983
0.00168882
0.00140829
0.00104883
0.000636904
0.000278742
7.77969e-05
1.27035e-05
1.53919e-05
0.00176444
0.00177598
0.00179737
0.00182691
0.001863
0.00190413
0.0019489
0.00199603
0.00204436
0.00209286
0.00214063
0.00218694
0.00223122
0.00227314
0.00231258
0.00234922
0.00238269
0.00241269
0.00243901
0.00246153
0.00248021
0.00249508
0.00250624
0.00251381
0.00251792
0.0025188
0.00251671
0.00251187
0.0025044
0.00249425
0.00248121
0.00246477
0.00244409
0.00241786
0.00238416
0.00233989
0.00228036
0.00219905
0.00208693
0.00193225
0.00172088
0.00143851
0.00107528
0.000656025
0.000288278
8.05946e-05
1.3147e-05
1.58244e-05
0.00171068
0.0017227
0.00174493
0.00177559
0.00181296
0.00185542
0.00190151
0.00194989
0.00199938
0.00204894
0.0020977
0.00214495
0.00219015
0.00223294
0.00227314
0.00231061
0.00234506
0.00237625
0.00240396
0.00242809
0.00244861
0.00246557
0.00247908
0.00248926
0.00249635
0.00250063
0.00250233
0.00250161
0.00249852
0.00249293
0.00248454
0.00247274
0.00245661
0.00243473
0.0024051
0.00236429
0.00230767
0.00222853
0.00211783
0.00196376
0.001752
0.00146785
0.00110098
0.000674686
0.000297633
8.33466e-05
1.35823e-05
1.62426e-05
0.00165727
0.00166965
0.00169252
0.00172402
0.00176234
0.00180579
0.00185285
0.00190215
0.0019525
0.00200287
0.00205241
0.00210045
0.00214648
0.00219015
0.00223122
0.00226955
0.00230499
0.00233738
0.00236656
0.00239243
0.00241497
0.00243423
0.00245032
0.00246348
0.00247398
0.00248204
0.00248785
0.0024915
0.00249296
0.00249204
0.00248832
0.00248112
0.00246942
0.00245176
0.00242588
0.00238835
0.00233438
0.00225722
0.0021478
0.00199424
0.00178206
0.00149619
0.00112585
0.000692813
0.000306767
8.60402e-05
1.40077e-05
1.66455e-05
0.00160432
0.00161695
0.00164026
0.00167232
0.00171126
0.00175536
0.00180305
0.00185296
0.0019039
0.00195485
0.00200499
0.00205369
0.00210045
0.00214495
0.00218694
0.00222628
0.00226285
0.00229655
0.00232728
0.002355
0.00237971
0.00240151
0.00242056
0.0024371
0.00245135
0.0024635
0.00247366
0.00248186
0.00248798
0.00249174
0.00249266
0.00248997
0.00248257
0.00246894
0.00244657
0.00241206
0.00236048
0.00228506
0.00217674
0.00202359
0.00181097
0.00152345
0.0011498
0.000710332
0.000315637
8.86623e-05
1.44212e-05
1.70318e-05
0.00155201
0.00156476
0.00158831
0.00162066
0.00165993
0.00170435
0.00175237
0.0018026
0.00185386
0.00190518
0.00195576
0.00200499
0.00205241
0.0020977
0.00214063
0.00218106
0.0022189
0.00225407
0.00228654
0.00231634
0.00234352
0.0023682
0.00239056
0.0024108
0.00242907
0.00244551
0.00246017
0.00247298
0.00248377
0.00249217
0.00249761
0.00249926
0.00249598
0.00248607
0.00246698
0.00243521
0.00238576
0.00231188
0.0022045
0.00205169
0.00183861
0.00154951
0.00117273
0.000727158
0.000324196
9.1198e-05
1.48204e-05
1.74001e-05
0.00150055
0.00151334
0.00153693
0.00156933
0.00160863
0.00165309
0.00170114
0.00175143
0.00180279
0.0018543
0.00190518
0.00195485
0.00200287
0.00204894
0.00209286
0.00213448
0.00217374
0.00221062
0.00224512
0.0022773
0.00230726
0.00233513
0.00236106
0.0023852
0.00240766
0.0024285
0.00244769
0.00246512
0.0024805
0.0024934
0.00250319
0.00250899
0.00250958
0.0025031
0.00248701
0.00245767
0.00241008
0.00233752
0.00223096
0.00207839
0.00186486
0.00157425
0.00119451
0.000743199
0.000332389
9.36312e-05
1.5203e-05
1.77489e-05
0.00145028
0.001463
0.00148646
0.00151869
0.00155779
0.00160202
0.00164986
0.00169998
0.00175126
0.00180279
0.00185386
0.0019039
0.0019525
0.00199938
0.00204436
0.00208731
0.0021282
0.00216702
0.00220382
0.00223867
0.00227168
0.00230297
0.00233265
0.00236082
0.00238754
0.0024128
0.00243649
0.00245841
0.00247822
0.00249543
0.00250933
0.00251902
0.00252315
0.00251983
0.00250641
0.00247921
0.00243324
0.00236181
0.00225593
0.00210355
0.00188955
0.00159754
0.00121503
0.000758351
0.000340161
9.59437e-05
1.55662e-05
1.80762e-05
0.00140164
0.00141421
0.0014374
0.00146926
0.00150794
0.00155174
0.00159917
0.00164894
0.00169998
0.00175143
0.0018026
0.00185296
0.00190215
0.00194989
0.00199603
0.00204046
0.00208316
0.00212414
0.00216347
0.00220121
0.00223747
0.00227232
0.00230586
0.00233811
0.00236907
0.00239865
0.0024267
0.00245293
0.00247695
0.0024982
0.00251595
0.00252923
0.00253658
0.00253609
0.00252501
0.00249964
0.00245503
0.00238456
0.00227924
0.00212699
0.00191254
0.00161921
0.00123415
0.000772505
0.000347446
9.81159e-05
1.59069e-05
1.83803e-05
0.00135521
0.00136756
0.00139037
0.00142173
0.00145983
0.00150303
0.00154989
0.00159917
0.00164986
0.00170114
0.00175237
0.00180305
0.00185285
0.00190151
0.0019489
0.00199493
0.00203959
0.0020829
0.00212491
0.00216568
0.00220528
0.00224375
0.00228113
0.00231739
0.00235246
0.0023862
0.00241838
0.00244865
0.00247658
0.00250157
0.00252285
0.00253934
0.0025496
0.00255158
0.0025425
0.00251867
0.00247522
0.00240555
0.00230068
0.00214851
0.00193364
0.0016391
0.0012517
0.000785533
0.000354176
0.000100126
1.62219e-05
1.86587e-05
0.00131174
0.00132384
0.00134619
0.00137694
0.00141435
0.00145684
0.00150303
0.00155174
0.00160202
0.00165309
0.00170435
0.00175536
0.00180579
0.00185542
0.00190413
0.00195185
0.00199855
0.00204426
0.002089
0.00213282
0.00217573
0.00221775
0.00225885
0.00229894
0.0023379
0.00237551
0.0024115
0.00244549
0.00247697
0.00250534
0.00252977
0.00254914
0.00256194
0.00256602
0.0025586
0.00253606
0.00249355
0.00242454
0.00232004
0.00216791
0.00195264
0.00165701
0.00126752
0.000797299
0.000360272
0.00010195
1.65075e-05
1.89091e-05
0.00127217
0.001284
0.00130585
0.00133595
0.00137262
0.00141435
0.00145983
0.00150794
0.00155779
0.00160863
0.00165993
0.00171126
0.00176234
0.00181296
0.001863
0.0019124
0.00196114
0.00200922
0.00205663
0.00210338
0.00214945
0.00219481
0.00223937
0.00228299
0.00232548
0.0023666
0.00240601
0.00244329
0.00247793
0.00250928
0.00253645
0.00255833
0.00257325
0.00257906
0.002573
0.0025515
0.00250976
0.00244126
0.00233705
0.00218495
0.00196931
0.00167272
0.0012814
0.000807645
0.000365647
0.00010356
1.67595e-05
1.91283e-05
0.00123763
0.00124918
0.00127054
0.0013
0.00133595
0.00137694
0.00142173
0.00146926
0.00151869
0.00156933
0.00162066
0.00167232
0.00172402
0.00177559
0.00182691
0.00187791
0.00192856
0.00197883
0.00202869
0.00207812
0.00212705
0.00217539
0.00222301
0.00226972
0.0023153
0.00235944
0.00240178
0.00244187
0.00247919
0.00251305
0.00254256
0.00256649
0.00258313
0.00259032
0.00258533
0.00256464
0.0025235
0.00245542
0.00235143
0.00219933
0.00198337
0.00168598
0.00129312
0.000816395
0.000370203
0.000104927
1.69732e-05
1.93132e-05
0.00120941
0.00122072
0.00124165
0.00127054
0.00130585
0.00134619
0.00139037
0.0014374
0.00148646
0.00153693
0.00158831
0.00164026
0.00169252
0.00174493
0.00179737
0.00184976
0.00190205
0.0019542
0.00200616
0.00205784
0.00210916
0.00215997
0.00221011
0.00225936
0.00230743
0.00235401
0.00239871
0.00244106
0.00248053
0.00251638
0.00254775
0.00257327
0.0025912
0.00259942
0.00259523
0.00257515
0.00253446
0.00246668
0.00236285
0.00221073
0.00199453
0.00169649
0.00130242
0.000823346
0.00037383
0.000106016
1.71435e-05
1.94596e-05
0.001189
0.00120013
0.00122072
0.00124918
0.001284
0.00132384
0.00136756
0.00141421
0.001463
0.00151334
0.00156477
0.00161695
0.00166965
0.0017227
0.00177598
0.00182943
0.00188296
0.00193652
0.00199003
0.00204338
0.00209645
0.00214907
0.00220105
0.00225211
0.00230198
0.00235031
0.00239668
0.00244064
0.00248163
0.00251893
0.00255159
0.0025782
0.00259702
0.00260593
0.00260229
0.00258262
0.00254223
0.00247465
0.00237093
0.0022188
0.00200241
0.00170393
0.001309
0.000828266
0.0003764
0.000106789
1.72642e-05
1.95631e-05
0.00117798
0.001189
0.00120941
0.00123763
0.00127217
0.00131174
0.00135521
0.00140164
0.00145028
0.00150055
0.00155201
0.00160432
0.00165727
0.00171068
0.00176444
0.00181847
0.00187269
0.00192703
0.00198139
0.00203565
0.00208968
0.00214328
0.00219624
0.00224829
0.00229913
0.00234838
0.00239566
0.00244048
0.00248229
0.00252036
0.0025537
0.00258087
0.00260015
0.00260942
0.00260606
0.0025866
0.00254636
0.00247889
0.00237522
0.00222309
0.00200661
0.00170788
0.0013125
0.000830884
0.000377769
0.0001072
1.73285e-05
1.96181e-05
)
;

boundaryField
{
    inlet
    {
        type            cyclic;
    }
    outlet
    {
        type            cyclic;
    }
    walls
    {
        Ceps2           1.9;
        Ck              -0.416;
        Bk              8.366;
        C               11;
        type            kLowReWallFunction;
        value           nonuniform List<scalar> 
96
(
2.23895e-15
5.1007e-14
3.03033e-13
1.01935e-12
2.56605e-12
5.41919e-12
1.01553e-11
1.74167e-11
2.78522e-11
4.20478e-11
6.04692e-11
8.34326e-11
1.11103e-10
1.43513e-10
1.80591e-10
2.22185e-10
2.68091e-10
3.18068e-10
3.71852e-10
4.29167e-10
4.89711e-10
5.53143e-10
6.19091e-10
6.87244e-10
7.57384e-10
8.29305e-10
9.02734e-10
9.77311e-10
1.05279e-09
1.12907e-09
1.20603e-09
1.28344e-09
1.36103e-09
1.43847e-09
1.5154e-09
1.5914e-09
1.66602e-09
1.73874e-09
1.80902e-09
1.87627e-09
1.93982e-09
1.99894e-09
2.05286e-09
2.10067e-09
2.1414e-09
2.17395e-09
2.19709e-09
2.20944e-09
2.20945e-09
2.19709e-09
2.17395e-09
2.1414e-09
2.10067e-09
2.05286e-09
1.99895e-09
1.93982e-09
1.87627e-09
1.80902e-09
1.73874e-09
1.66602e-09
1.59141e-09
1.51541e-09
1.43847e-09
1.36103e-09
1.28344e-09
1.20603e-09
1.12907e-09
1.05279e-09
9.77312e-10
9.02735e-10
8.29306e-10
7.57385e-10
6.87245e-10
6.19092e-10
5.53143e-10
4.89711e-10
4.29168e-10
3.71853e-10
3.18068e-10
2.68092e-10
2.22185e-10
1.80591e-10
1.43513e-10
1.11103e-10
8.34327e-11
6.04693e-11
4.20478e-11
2.78523e-11
1.74167e-11
1.01553e-11
5.41919e-12
2.56605e-12
1.01935e-12
3.03033e-13
5.10071e-14
2.23895e-15
)
;
    }
    symPlanes
    {
        type            symmetry;
    }
}


// ************************************************************************* //
