/*--------------------------------*- C++ -*----------------------------------*\
| =========                 |                                                 |
| \\      /  F ield         | OpenFOAM: The Open Source CFD Toolbox           |
|  \\    /   O peration     | Version:  2112                                  |
|   \\  /    A nd           | Website:  www.openfoam.com                      |
|    \\/     M anipulation  |                                                 |
\*---------------------------------------------------------------------------*/
FoamFile
{
    version     2.0;
    format      ascii;
    arch        "LSB;label=32;scalar=64";
    class       volScalarField;
    location    "11000";
    object      nut;
}
// * * * * * * * * * * * * * * * * * * * * * * * * * * * * * * * * * * * * * //

dimensions      [0 2 -1 0 0 0 0];

internalField   nonuniform List<scalar> 
2304
(
7.95695e-09
7.93464e-09
7.89267e-09
7.83327e-09
7.7583e-09
7.66936e-09
7.56783e-09
7.45489e-09
7.33158e-09
7.1988e-09
7.05736e-09
6.90798e-09
6.7513e-09
6.58789e-09
6.41825e-09
6.24284e-09
6.06204e-09
5.87613e-09
5.68531e-09
5.48963e-09
5.28894e-09
5.08289e-09
4.87152e-09
4.65523e-09
4.43418e-09
4.20832e-09
3.97761e-09
3.74235e-09
3.50314e-09
3.2606e-09
3.01535e-09
2.76812e-09
2.51978e-09
2.27151e-09
2.02475e-09
1.78133e-09
1.5435e-09
1.31389e-09
1.0955e-09
8.91501e-10
7.04893e-10
5.38189e-10
3.931e-10
2.70468e-10
1.70448e-10
9.29231e-11
3.81188e-11
7.98536e-12
4.15974e-08
4.14437e-08
4.11553e-08
4.07485e-08
4.02377e-08
3.96354e-08
3.89527e-08
3.81996e-08
3.73848e-08
3.65164e-08
3.56013e-08
3.46463e-08
3.36571e-08
3.26391e-08
3.15971e-08
3.05356e-08
2.94582e-08
2.8368e-08
2.72673e-08
2.61566e-08
2.50344e-08
2.38945e-08
2.27377e-08
2.15713e-08
2.03979e-08
1.92161e-08
1.80228e-08
1.68196e-08
1.56126e-08
1.44058e-08
1.32016e-08
1.20013e-08
1.08071e-08
9.62187e-09
8.44989e-09
7.2969e-09
6.17139e-09
5.08596e-09
4.05836e-09
3.11176e-09
2.27264e-09
1.56533e-09
1.0046e-09
5.90458e-10
3.0916e-10
1.40572e-10
4.95871e-11
3.81188e-11
7.54986e-07
7.52175e-07
7.46899e-07
7.3946e-07
7.30119e-07
7.19106e-07
7.06627e-07
6.92863e-07
6.77976e-07
6.62114e-07
6.45409e-07
6.27981e-07
6.0994e-07
5.91386e-07
5.72407e-07
5.53089e-07
5.33499e-07
5.13694e-07
4.93718e-07
4.7358e-07
4.53244e-07
4.32579e-07
4.11596e-07
3.90448e-07
3.69185e-07
3.47772e-07
3.2614e-07
3.04311e-07
2.82407e-07
2.60506e-07
2.3864e-07
2.16829e-07
1.95096e-07
1.73488e-07
1.52066e-07
1.30927e-07
1.10215e-07
9.01663e-08
7.11266e-08
5.35683e-08
3.80518e-08
2.51069e-08
1.50599e-08
7.90341e-09
3.31634e-09
8.76692e-10
1.40572e-10
9.2923e-11
5.22051e-06
5.20321e-06
5.17074e-06
5.12488e-06
5.06722e-06
4.99911e-06
4.92177e-06
4.83624e-06
4.74349e-06
4.64437e-06
4.53964e-06
4.42999e-06
4.31608e-06
4.19846e-06
4.07765e-06
3.95415e-06
3.82834e-06
3.70054e-06
3.57097e-06
3.43965e-06
3.30625e-06
3.1697e-06
3.03e-06
2.88818e-06
2.74452e-06
2.5987e-06
2.45004e-06
2.29861e-06
2.14521e-06
1.99032e-06
1.83409e-06
1.67655e-06
1.51777e-06
1.35801e-06
1.19767e-06
1.03741e-06
8.78309e-07
7.22202e-07
5.71886e-07
4.31313e-07
3.05363e-07
1.98899e-07
1.15282e-07
5.546e-08
1.88377e-08
3.31633e-09
3.0916e-10
1.70448e-10
1.78106e-05
1.77628e-05
1.7673e-05
1.7546e-05
1.7386e-05
1.71966e-05
1.69811e-05
1.6742e-05
1.64819e-05
1.6203e-05
1.59071e-05
1.55961e-05
1.52714e-05
1.49346e-05
1.45868e-05
1.42292e-05
1.38627e-05
1.34879e-05
1.31052e-05
1.27141e-05
1.23132e-05
1.18977e-05
1.14668e-05
1.10242e-05
1.057e-05
1.01024e-05
9.61787e-06
9.11551e-06
8.59766e-06
8.06509e-06
7.51718e-06
6.95285e-06
6.37115e-06
5.77177e-06
5.15505e-06
4.52233e-06
3.87685e-06
3.22529e-06
2.57905e-06
1.95575e-06
1.37949e-06
8.78152e-07
4.78382e-07
2.01716e-07
5.54599e-08
7.9034e-09
5.90458e-10
2.70468e-10
3.87603e-05
3.86782e-05
3.8524e-05
3.8306e-05
3.80312e-05
3.7706e-05
3.73355e-05
3.69247e-05
3.64775e-05
3.59977e-05
3.54884e-05
3.49526e-05
3.43928e-05
3.38112e-05
3.32097e-05
3.259e-05
3.19533e-05
3.13001e-05
3.06304e-05
2.99422e-05
2.92312e-05
2.84837e-05
2.76961e-05
2.68769e-05
2.60251e-05
2.51342e-05
2.41925e-05
2.31951e-05
2.21453e-05
2.10415e-05
1.9878e-05
1.86473e-05
1.73416e-05
1.59541e-05
1.44787e-05
1.29112e-05
1.12514e-05
9.508e-06
7.70351e-06
5.88249e-06
4.12201e-06
2.53904e-06
1.2823e-06
4.78382e-07
1.15282e-07
1.50598e-08
1.0046e-09
3.931e-10
6.36669e-05
6.35634e-05
6.3369e-05
6.3095e-05
6.27511e-05
6.23459e-05
6.18871e-05
6.13816e-05
6.08357e-05
6.02549e-05
5.96443e-05
5.90085e-05
5.83516e-05
5.76776e-05
5.69893e-05
5.62901e-05
5.55816e-05
5.48649e-05
5.41396e-05
5.34017e-05
5.26411e-05
5.17393e-05
5.06746e-05
4.95547e-05
4.8375e-05
4.71204e-05
4.57628e-05
4.42881e-05
4.27027e-05
4.09984e-05
3.91578e-05
3.71589e-05
3.49771e-05
3.25886e-05
2.99687e-05
2.70919e-05
2.39364e-05
2.04946e-05
1.67831e-05
1.28727e-05
8.94172e-06
5.33721e-06
2.53904e-06
8.78152e-07
1.98899e-07
2.51069e-08
1.56533e-09
5.38188e-10
9.22162e-05
9.20874e-05
9.18461e-05
9.15068e-05
9.10824e-05
9.05847e-05
9.00242e-05
8.94108e-05
8.8753e-05
8.8059e-05
8.7336e-05
8.65906e-05
8.58288e-05
8.5056e-05
8.42762e-05
8.34935e-05
8.271e-05
8.19258e-05
8.11384e-05
8.03412e-05
7.9521e-05
7.8651e-05
7.77166e-05
7.67184e-05
7.56359e-05
7.44323e-05
7.29107e-05
7.10113e-05
6.8919e-05
6.66151e-05
6.40636e-05
6.12207e-05
5.80366e-05
5.44637e-05
5.045e-05
4.5938e-05
4.08687e-05
3.5207e-05
2.89497e-05
2.21982e-05
1.52892e-05
8.94172e-06
4.12201e-06
1.37949e-06
3.05363e-07
3.80518e-08
2.27264e-09
7.04893e-10
0.000124381
0.000124232
0.000123953
0.000123562
0.000123076
0.00012251
0.000121879
0.000121195
0.00012047
0.000119716
0.000118942
0.000118157
0.00011737
0.000116587
0.000115813
0.000115051
0.000114304
0.000113568
0.000112832
0.000112088
0.000111319
0.000110504
0.000109612
0.000108615
0.000107463
0.000106095
0.000104424
0.000102188
9.95454e-05
9.65583e-05
9.31648e-05
8.92946e-05
8.48647e-05
7.98079e-05
7.40482e-05
6.75003e-05
5.99686e-05
5.16641e-05
4.24543e-05
3.2435e-05
2.21982e-05
1.28727e-05
5.88248e-06
1.95574e-06
4.31313e-07
5.35683e-08
3.11176e-09
8.915e-10
0.000159646
0.000159487
0.000159191
0.00015878
0.000158273
0.00015769
0.00015705
0.000156369
0.000155662
0.000154946
0.000154233
0.000153534
0.000152857
0.00015221
0.0001516
0.000151018
0.000150468
0.000149938
0.000149395
0.000148824
0.0001482
0.00014748
0.000146597
0.000145465
0.000144069
0.000142306
0.000139792
0.000136896
0.000133552
0.000129679
0.000125182
0.000119967
0.000113504
0.00010602
9.75785e-05
8.81893e-05
7.78791e-05
6.67675e-05
5.49936e-05
4.24543e-05
2.89497e-05
1.67831e-05
7.70351e-06
2.57904e-06
5.71886e-07
7.11265e-08
4.05836e-09
1.0955e-09
0.000197518
0.000197365
0.000197082
0.000196693
0.000196224
0.000195696
0.000195134
0.000194561
0.000193995
0.000193455
0.000192956
0.000192511
0.000192127
0.000191797
0.000191539
0.000191312
0.000191108
0.000190908
0.000190648
0.000190249
0.00018967
0.000188901
0.00018782
0.000185896
0.000183653
0.000181023
0.00017793
0.000174283
0.000169981
0.000164909
0.000158645
0.000150884
0.000141987
0.000131966
0.00012087
0.000108741
9.55929e-05
8.16014e-05
6.67675e-05
5.16641e-05
3.5207e-05
2.04946e-05
9.50799e-06
3.22529e-06
7.22202e-07
9.01662e-08
5.08595e-09
1.31388e-09
0.000237648
0.000237522
0.000237294
0.000236991
0.00023664
0.00023627
0.00023591
0.000235586
0.000235324
0.000235139
0.000235051
0.000235057
0.000235164
0.000235325
0.000235561
0.000235788
0.000235915
0.000235915
0.000235778
0.000235102
0.000233769
0.000232194
0.000230316
0.000228069
0.000225364
0.000222107
0.000218191
0.000213498
0.000207895
0.000200675
0.000191711
0.000181466
0.000169994
0.000157336
0.000143572
0.00012885
0.000113391
9.55929e-05
7.78791e-05
5.99685e-05
4.08687e-05
2.39364e-05
1.12514e-05
3.87685e-06
8.78308e-07
1.10215e-07
6.17139e-09
1.54349e-09
0.000279753
0.000279685
0.00027957
0.000279435
0.000279312
0.000279234
0.000279234
0.000279339
0.000279579
0.000279951
0.000280475
0.0002811
0.000281827
0.000282533
0.000283104
0.000283598
0.000283471
0.000282687
0.000281742
0.000280587
0.000279159
0.000277377
0.000275157
0.000272404
0.000269009
0.00026485
0.000259794
0.000253696
0.000245538
0.00023547
0.000224008
0.000211201
0.00019709
0.000181729
0.000165217
0.000147742
0.00012885
0.000108741
8.81893e-05
6.75003e-05
4.59379e-05
2.70919e-05
1.29112e-05
4.52232e-06
1.03741e-06
1.30926e-07
7.29689e-09
1.78133e-09
0.000323656
0.000323684
0.000323756
0.000323898
0.000324141
0.000324522
0.000325071
0.000325802
0.000326747
0.000327841
0.000329087
0.000330315
0.000331436
0.000332379
0.000332097
0.000331722
0.000331222
0.000330546
0.000329624
0.000328382
0.000326734
0.000324578
0.000321805
0.000318295
0.000313916
0.000308525
0.000301964
0.00029277
0.000281669
0.000269108
0.00025513
0.00023976
0.000223031
0.000205003
0.00018579
0.000165217
0.000143572
0.00012087
9.75785e-05
7.40481e-05
5.045e-05
2.99686e-05
1.44787e-05
5.15505e-06
1.19767e-06
1.52066e-07
8.44988e-09
2.02475e-09
0.000369295
0.000369469
0.000369821
0.000370371
0.000371139
0.000372166
0.000373454
0.000374979
0.000376734
0.000378537
0.000380223
0.000381468
0.000381617
0.000381705
0.000381705
0.000381557
0.000381201
0.000380565
0.00037956
0.000378087
0.000376033
0.000373275
0.00036968
0.000365106
0.000359405
0.000352418
0.000342053
0.000329964
0.000316376
0.00030134
0.000284869
0.000266979
0.000247689
0.00022705
0.000205003
0.000181729
0.000157336
0.000131966
0.00010602
7.98078e-05
5.44637e-05
3.25886e-05
1.5954e-05
5.77177e-06
1.35801e-06
1.73487e-07
9.62186e-09
2.27151e-09
0.000416743
0.000417117
0.000417852
0.000418956
0.000420404
0.000422238
0.000424375
0.000426721
0.000428993
0.000430963
0.000431563
0.000432145
0.000432682
0.000433112
0.000433381
0.000433411
0.000433117
0.000432402
0.000431154
0.000429248
0.000426548
0.000422908
0.000418175
0.000412194
0.000404499
0.000393137
0.000380124
0.000365568
0.000349537
0.00033205
0.00031312
0.000292756
0.000270965
0.000247689
0.000223031
0.00019709
0.000169994
0.000141987
0.000113504
8.48646e-05
5.80366e-05
3.49771e-05
1.73416e-05
6.37115e-06
1.51777e-06
1.95096e-07
1.0807e-08
2.51978e-09
0.000466198
0.000466827
0.000468038
0.000469817
0.000472039
0.000474698
0.000477488
0.000480258
0.000481557
0.000482619
0.000483697
0.000484729
0.000485659
0.000486405
0.000486887
0.000487
0.000486636
0.000485671
0.000483966
0.000481377
0.000477743
0.000472902
0.000466689
0.000457978
0.000445813
0.000431944
0.000416514
0.000399563
0.000381122
0.000361213
0.000339852
0.000317054
0.000292756
0.000266979
0.00023976
0.0002112
0.000181466
0.000150884
0.000119967
8.92945e-05
6.12207e-05
3.71589e-05
1.86473e-05
6.95285e-06
1.67654e-06
2.16828e-07
1.20013e-08
2.76811e-09
0.000517924
0.000518843
0.00052056
0.000523007
0.000525911
0.000528958
0.000531376
0.000532845
0.000534406
0.000536004
0.000537583
0.000539062
0.000540354
0.000541351
0.000541942
0.000541998
0.000541381
0.000539944
0.000537526
0.000533962
0.000529076
0.000522693
0.000512873
0.00049995
0.00048529
0.000469056
0.000451271
0.000431962
0.00041115
0.000388856
0.000365097
0.000339852
0.00031312
0.000284869
0.00025513
0.000224008
0.000191711
0.000158645
0.000125182
9.31647e-05
6.40635e-05
3.91578e-05
1.98779e-05
7.51717e-06
1.83409e-06
2.3864e-07
1.32015e-08
3.01535e-09
0.000572019
0.000573198
0.000575294
0.000578004
0.000581051
0.000582754
0.000584652
0.000586701
0.00058884
0.00059099
0.000593065
0.000594954
0.000596536
0.000597675
0.000598226
0.000598034
0.000596937
0.000594763
0.000591338
0.000586483
0.000580008
0.000569032
0.000555433
0.000540063
0.000523081
0.000504527
0.000484423
0.000462789
0.000439644
0.000415003
0.000388856
0.000361213
0.00033205
0.00030134
0.000269108
0.00023547
0.000200675
0.000164909
0.000129679
9.65582e-05
6.66151e-05
4.09984e-05
2.10415e-05
8.06508e-06
1.99032e-06
2.60506e-07
1.44058e-08
3.2606e-09
0.000627818
0.000629076
0.000631059
0.000632634
0.000634581
0.000636844
0.000639344
0.000642005
0.000644736
0.000647428
0.000649957
0.000652179
0.000653937
0.000655061
0.000655378
0.000654705
0.000652859
0.000649654
0.000644902
0.000638427
0.000626307
0.000612117
0.000596128
0.000578482
0.000559223
0.000538386
0.000515995
0.000492067
0.000466618
0.000439644
0.00041115
0.000381122
0.000349537
0.000316376
0.000281669
0.000245538
0.000207895
0.000169981
0.000133552
9.95453e-05
6.8919e-05
4.27027e-05
2.21453e-05
8.59766e-06
2.14521e-06
2.82407e-07
1.56126e-08
3.50314e-09
0.000682638
0.000683416
0.000684865
0.000686885
0.000689372
0.000692233
0.00069536
0.000698641
0.000701948
0.000705136
0.00070804
0.000710476
0.000712251
0.000713162
0.000713007
0.000711584
0.000708691
0.000704134
0.000696991
0.000684474
0.000669845
0.00065334
0.00063512
0.00061524
0.00059374
0.000570653
0.000546002
0.000519807
0.000492067
0.000462789
0.000431962
0.000399563
0.000365568
0.000329964
0.00029277
0.000253696
0.000213498
0.000174283
0.000136896
0.000102188
7.10112e-05
4.4288e-05
2.31951e-05
9.11551e-06
2.2986e-06
3.04311e-07
1.68196e-08
3.74235e-09
0.000737036
0.000738006
0.000739805
0.0007423
0.000745352
0.00074883
0.000752586
0.000756466
0.000760302
0.000763901
0.000767059
0.00076955
0.000771142
0.000771602
0.000770703
0.000768229
0.000763971
0.000756213
0.000743364
0.000728362
0.00071151
0.00069284
0.000672436
0.000650357
0.000626647
0.000601337
0.000574453
0.000546002
0.000515995
0.000484423
0.000451271
0.000416514
0.000380124
0.000342053
0.000301964
0.000259794
0.000218191
0.00017793
0.000139792
0.000104424
7.29107e-05
4.57627e-05
2.41925e-05
9.61786e-06
2.45004e-06
3.26139e-07
1.80227e-08
3.97761e-09
0.000792487
0.000793657
0.000795823
0.000798809
0.000802436
0.000806526
0.000810885
0.000815313
0.000819589
0.000823479
0.000826729
0.000829075
0.000830247
0.000829983
0.000828041
0.000824198
0.000816025
0.000802954
0.000787674
0.000770486
0.000751463
0.000730646
0.000708087
0.00068384
0.000657947
0.00063044
0.000601337
0.000570653
0.000538386
0.000504527
0.000469056
0.000431944
0.000393137
0.000352418
0.000308525
0.00026485
0.000222107
0.000181023
0.000142306
0.000106095
7.44323e-05
4.71203e-05
2.51342e-05
1.01024e-05
2.5987e-06
3.47772e-07
1.9216e-08
4.20832e-09
0.000848936
0.000850312
0.00085285
0.000856328
0.000860519
0.000865189
0.000870095
0.00087498
0.000879574
0.000883592
0.000886737
0.000888704
0.000889188
0.000887903
0.000884599
0.000876315
0.000863117
0.000847665
0.000830229
0.000810896
0.000789728
0.000766774
0.000742079
0.000715686
0.000687633
0.000657947
0.000626647
0.00059374
0.000559223
0.000523081
0.00048529
0.000445813
0.000404499
0.000359405
0.000313916
0.000269009
0.000225364
0.000183653
0.000144069
0.000107463
7.56358e-05
4.83749e-05
2.60251e-05
1.057e-05
2.74452e-06
3.69184e-07
2.03979e-08
4.43418e-09
0.000906321
0.000907901
0.000910803
0.000914754
0.000919471
0.000924661
0.000930021
0.000935238
0.000939987
0.000943937
0.000946746
0.000948072
0.000947581
0.000944958
0.00093705
0.000923775
0.000908218
0.000890618
0.000871055
0.000849596
0.000826302
0.000801224
0.000774404
0.000745882
0.000715686
0.00068384
0.000650357
0.00061524
0.000578482
0.000540063
0.00049995
0.000457978
0.000412194
0.000365106
0.000318295
0.000272404
0.000228069
0.000185896
0.000145465
0.000108615
7.67183e-05
4.95547e-05
2.68769e-05
1.10242e-05
2.88817e-06
3.90448e-07
2.15713e-08
4.65523e-09
0.00096456
0.000966333
0.000969577
0.000973961
0.000979139
0.000984754
0.000990441
0.000995826
0.00100053
0.00100419
0.0010064
0.00100681
0.00100505
0.000998432
0.000984996
0.000969316
0.000951577
0.000931837
0.000910152
0.000886579
0.000861173
0.000833982
0.000805049
0.000774404
0.000742079
0.000708087
0.000672436
0.00063512
0.000596128
0.000555433
0.000512873
0.000466689
0.000418175
0.00036968
0.000321805
0.000275156
0.000230316
0.00018782
0.000146597
0.000109612
7.77165e-05
5.06746e-05
2.76961e-05
1.14668e-05
3.02999e-06
4.11596e-07
2.27376e-08
4.87152e-09
0.00102355
0.0010255
0.00102904
0.00103379
0.00103934
0.00104525
0.0010511
0.00105646
0.0010609
0.001064
0.00106535
0.00106456
0.0010612
0.00104723
0.00103118
0.00101318
0.000993227
0.000971328
0.000947515
0.000921831
0.00089432
0.000865025
0.000833982
0.000801224
0.000766774
0.000730646
0.00069284
0.00065334
0.000612117
0.000569032
0.000522693
0.000472902
0.000422908
0.000373275
0.000324578
0.000277377
0.000232194
0.000188901
0.00014748
0.000110504
7.86509e-05
5.17393e-05
2.84836e-05
1.18977e-05
3.1697e-06
4.32578e-07
2.38944e-08
5.08288e-09
0.00108316
0.00108526
0.00108904
0.00109407
0.00109985
0.0011059
0.00111172
0.00111682
0.00112074
0.00112301
0.00112322
0.00112096
0.00111115
0.0010945
0.00107585
0.00105544
0.0010332
0.0010091
0.000983137
0.000955333
0.000925718
0.00089432
0.000861173
0.000826302
0.000789728
0.000751463
0.00071151
0.000669845
0.000626307
0.000580008
0.000529076
0.000477743
0.000426548
0.000376033
0.000326734
0.000279159
0.000233769
0.00018967
0.0001482
0.000111319
7.95209e-05
5.26411e-05
2.92312e-05
1.23132e-05
3.30625e-06
4.53244e-07
2.50344e-08
5.28894e-09
0.00114325
0.00114544
0.00114939
0.00115457
0.00116044
0.00116643
0.00117199
0.00117658
0.0011797
0.00118087
0.00117966
0.00117568
0.00116003
0.00114048
0.00111912
0.00109616
0.00107153
0.00104516
0.00101701
0.000987067
0.000955333
0.000921831
0.000886579
0.000849596
0.000810896
0.000770486
0.000728362
0.000684474
0.000638427
0.000586483
0.000533962
0.000481377
0.000429248
0.000378086
0.000328382
0.000280587
0.000235102
0.000190249
0.000148823
0.000112088
8.03412e-05
5.34017e-05
2.99422e-05
1.27141e-05
3.43964e-06
4.73579e-07
2.61566e-08
5.48963e-09
0.0012036
0.00120585
0.00120986
0.00121506
0.00122082
0.00122653
0.00123158
0.00123539
0.00123742
0.0012372
0.00123431
0.00122836
0.00120871
0.00118566
0.00116122
0.00113547
0.0011083
0.00107955
0.00104914
0.00101701
0.000983137
0.000947515
0.000910152
0.000871055
0.000830229
0.000787674
0.000743364
0.000696991
0.000644901
0.000591338
0.000537526
0.000483966
0.000431154
0.00037956
0.000329624
0.000281742
0.000235778
0.000190648
0.000149395
0.000112832
8.11384e-05
5.41396e-05
3.06303e-05
1.31052e-05
3.57097e-06
4.93717e-07
2.72673e-08
5.68531e-09
0.00126401
0.00126625
0.00127021
0.00127525
0.0012807
0.00128588
0.00129014
0.00129287
0.00129353
0.00129164
0.00128679
0.00127866
0.00125702
0.0012304
0.00120248
0.0011736
0.00114363
0.00111233
0.00107955
0.00104516
0.0010091
0.000971328
0.000931837
0.000890618
0.000847665
0.000802954
0.000756213
0.000704134
0.000649654
0.000594763
0.000539943
0.00048567
0.000432402
0.000380565
0.000330546
0.000282686
0.000235915
0.000190908
0.000149938
0.000113567
8.19258e-05
5.48649e-05
3.13001e-05
1.34879e-05
3.70053e-06
5.13694e-07
2.8368e-08
5.87612e-09
0.00132422
0.00132637
0.00133013
0.00133483
0.00133973
0.00134412
0.00134731
0.00134867
0.00134766
0.00134382
0.00133676
0.00132621
0.00130463
0.00127484
0.0012432
0.00121083
0.00117772
0.00114363
0.0011083
0.00107153
0.0010332
0.000993227
0.000951576
0.000908218
0.000863117
0.000816025
0.000763971
0.000708691
0.000652859
0.000596937
0.000541381
0.000486636
0.000433117
0.000381201
0.000331222
0.000283471
0.000235915
0.000191108
0.000150468
0.000114304
8.271e-05
5.55816e-05
3.19532e-05
1.38626e-05
3.82833e-06
5.33498e-07
2.94582e-08
6.06203e-09
0.00138392
0.00138591
0.00138933
0.00139347
0.00139758
0.00140089
0.00140271
0.00140241
0.00139945
0.00139338
0.00138387
0.00137067
0.00135072
0.00131881
0.00128359
0.00124744
0.00121083
0.0011736
0.00113547
0.00109616
0.00105544
0.00101318
0.000969315
0.000923775
0.000876314
0.000824198
0.000768229
0.000711583
0.000654705
0.000598034
0.000541998
0.000487
0.000433411
0.000381557
0.000331722
0.000283598
0.000235788
0.000191312
0.000151018
0.000115051
8.34935e-05
5.629e-05
3.259e-05
1.42292e-05
3.95415e-06
5.53088e-07
3.05356e-08
6.24284e-09
0.00144278
0.00144452
0.00144744
0.00145082
0.00145387
0.00145583
0.00145598
0.00145372
0.00144852
0.00143998
0.00142779
0.00141174
0.00139174
0.00136123
0.00132343
0.00128359
0.0012432
0.00120248
0.00116122
0.00111912
0.00107585
0.00103118
0.000984996
0.00093705
0.000884599
0.000828041
0.000770703
0.000713007
0.000655377
0.000598226
0.000541942
0.000486886
0.000433381
0.000381705
0.000332097
0.000283104
0.000235561
0.000191539
0.0001516
0.000115813
8.42761e-05
5.69893e-05
3.32096e-05
1.45867e-05
4.07765e-06
5.72407e-07
3.15971e-08
6.41824e-09
0.00150046
0.00150185
0.0015041
0.00150649
0.00150822
0.00150854
0.00150674
0.00150224
0.00149455
0.0014833
0.00146822
0.00144916
0.00142605
0.00139888
0.00136123
0.00131881
0.00127484
0.0012304
0.00118566
0.00114048
0.0010945
0.00104723
0.000998432
0.000944958
0.000887903
0.000829983
0.000771601
0.000713162
0.000655061
0.000597675
0.000541351
0.000486405
0.000433112
0.000381705
0.000332379
0.000282533
0.000235325
0.000191797
0.00015221
0.000116587
8.5056e-05
5.76776e-05
3.38112e-05
1.49346e-05
4.19846e-06
5.91386e-07
3.26391e-08
6.58788e-09
0.00155656
0.00155752
0.00155893
0.0015601
0.00156026
0.00155866
0.00155464
0.00154765
0.00153723
0.00152306
0.00150493
0.00148272
0.00145641
0.00142605
0.00139174
0.00135072
0.00130463
0.00125702
0.00120871
0.00116003
0.00111115
0.0010612
0.00100505
0.000947581
0.000889188
0.000830247
0.000771142
0.000712251
0.000653937
0.000596536
0.000540353
0.000485658
0.000432682
0.000381617
0.000331436
0.000281827
0.000235164
0.000192127
0.000152857
0.00011737
8.58288e-05
5.83516e-05
3.43928e-05
1.52714e-05
4.31607e-06
6.09939e-07
3.3657e-08
6.75129e-09
0.00161069
0.00161112
0.00161154
0.00161128
0.00160961
0.00160585
0.00159935
0.00158962
0.00157627
0.00155902
0.00153771
0.00151227
0.00148272
0.00144916
0.00141174
0.00137067
0.00132621
0.00127866
0.00122836
0.00117568
0.00112096
0.00106456
0.00100681
0.000948072
0.000888704
0.000829075
0.00076955
0.000710476
0.000652179
0.000594954
0.000539062
0.000484729
0.000432145
0.000381467
0.000330315
0.0002811
0.000235057
0.000192511
0.000153534
0.000118157
8.65906e-05
5.90084e-05
3.49526e-05
1.5596e-05
4.42999e-06
6.2798e-07
3.46462e-08
6.90798e-09
0.00166243
0.00166225
0.00166152
0.00165963
0.00165592
0.00164975
0.00164057
0.00162791
0.00161146
0.001591
0.00156642
0.00153771
0.00150493
0.00146822
0.00142779
0.00138387
0.00133676
0.00128679
0.00123431
0.00117966
0.00112322
0.00106535
0.0010064
0.000946746
0.000886737
0.000826729
0.000767059
0.000708039
0.000649957
0.000593065
0.000537583
0.000483697
0.000431562
0.000380223
0.000329087
0.000280475
0.000235051
0.000192956
0.000154233
0.000118942
8.73359e-05
5.96442e-05
3.54884e-05
1.59071e-05
4.53963e-06
6.45408e-07
3.56013e-08
7.05736e-09
0.00171139
0.00171051
0.00170849
0.00170479
0.00169885
0.00169009
0.00167803
0.0016623
0.00164263
0.00161888
0.001591
0.00155902
0.00152306
0.0014833
0.00143998
0.00139338
0.00134382
0.00129164
0.0012372
0.00118087
0.00112301
0.001064
0.00100419
0.000943936
0.000883592
0.000823479
0.000763901
0.000705136
0.000647428
0.00059099
0.000536004
0.000482619
0.000430963
0.000378537
0.000327841
0.000279951
0.000235139
0.000193455
0.000154946
0.000119716
8.8059e-05
6.02549e-05
3.59977e-05
1.6203e-05
4.64437e-06
6.62114e-07
3.65163e-08
7.19879e-09
0.00175714
0.00175551
0.00175208
0.00174644
0.00173811
0.00172661
0.00171155
0.00169264
0.0016697
0.00164263
0.00161146
0.00157627
0.00153723
0.00149455
0.00144852
0.00139945
0.00134766
0.00129353
0.00123742
0.0011797
0.00112074
0.0010609
0.00100053
0.000939987
0.000879573
0.000819589
0.000760301
0.000701948
0.000644736
0.000588839
0.000534406
0.000481557
0.000428993
0.000376734
0.000326747
0.000279579
0.000235323
0.000193995
0.000155662
0.00012047
8.87529e-05
6.08356e-05
3.64775e-05
1.64819e-05
4.74349e-06
6.77975e-07
3.73848e-08
7.33157e-09
0.0017993
0.00179687
0.00179195
0.00178426
0.00177344
0.00175911
0.00174098
0.00171886
0.00169264
0.0016623
0.00162791
0.00158962
0.00154765
0.00150224
0.00145372
0.00140241
0.00134867
0.00129287
0.00123538
0.00117658
0.00111682
0.00105646
0.000995826
0.000935237
0.000874979
0.000815312
0.000756466
0.000698641
0.000642005
0.000586701
0.000532845
0.000480258
0.00042672
0.000374979
0.000325802
0.000279339
0.000235586
0.000194561
0.000156369
0.000121195
8.94107e-05
6.13816e-05
3.69247e-05
1.6742e-05
4.83624e-06
6.92862e-07
3.81996e-08
7.45489e-09
0.00183749
0.00183423
0.00182779
0.001818
0.00180464
0.00178746
0.00176628
0.00174098
0.00171155
0.00167803
0.00164057
0.00159935
0.00155464
0.00150674
0.00145598
0.00140271
0.00134731
0.00129014
0.00123158
0.00117199
0.00111172
0.0010511
0.00099044
0.000930021
0.000870095
0.000810885
0.000752585
0.000695359
0.000639344
0.000584651
0.000531376
0.000477488
0.000424375
0.000373454
0.000325071
0.000279234
0.00023591
0.000195134
0.00015705
0.000121879
9.00242e-05
6.1887e-05
3.73355e-05
1.6981e-05
4.92176e-06
7.06626e-07
3.89527e-08
7.56782e-09
0.00187137
0.00186728
0.00185931
0.00184745
0.00183159
0.00181162
0.00178746
0.00175911
0.00172661
0.00169009
0.00164975
0.00160585
0.00155866
0.00150854
0.00145583
0.00140089
0.00134412
0.00128588
0.00122653
0.00116643
0.0011059
0.00104525
0.000984754
0.000924661
0.000865189
0.000806526
0.000748829
0.000692232
0.000636844
0.000582753
0.000528958
0.000474698
0.000422238
0.000372165
0.000324522
0.000279234
0.00023627
0.000195696
0.00015769
0.00012251
9.05846e-05
6.23458e-05
3.77059e-05
1.71966e-05
4.99911e-06
7.19105e-07
3.96354e-08
7.66936e-09
0.00190059
0.0018957
0.00188627
0.00187242
0.00185419
0.00183159
0.00180464
0.00177344
0.00173811
0.00169885
0.00165592
0.00160961
0.00156026
0.00150822
0.00145387
0.00139758
0.00133973
0.0012807
0.00122082
0.00116044
0.00109985
0.00103934
0.000979138
0.000919471
0.000860519
0.000802436
0.000745352
0.000689372
0.000634581
0.000581051
0.000525911
0.000472039
0.000420404
0.000371139
0.000324141
0.000279312
0.00023664
0.000196223
0.000158273
0.000123076
9.10824e-05
6.27511e-05
3.80312e-05
1.7386e-05
5.06722e-06
7.30118e-07
4.02377e-08
7.75829e-09
0.00192482
0.0019192
0.00190844
0.00189279
0.00187242
0.00184745
0.001818
0.00178426
0.00174644
0.00170479
0.00165963
0.00161128
0.0015601
0.00150649
0.00145082
0.00139347
0.00133483
0.00127525
0.00121506
0.00115457
0.00109407
0.00103379
0.00097396
0.000914754
0.000856328
0.000798809
0.0007423
0.000686885
0.000632634
0.000578004
0.000523006
0.000469817
0.000418956
0.000370371
0.000323898
0.000279435
0.000236991
0.000196693
0.00015878
0.000123562
9.15068e-05
6.3095e-05
3.83059e-05
1.7546e-05
5.12488e-06
7.39459e-07
4.07485e-08
7.83326e-09
0.00194371
0.00193748
0.0019256
0.00190844
0.00188627
0.00185931
0.00182779
0.00179195
0.00175208
0.00170849
0.00166152
0.00161154
0.00155893
0.0015041
0.00144744
0.00138933
0.00133013
0.00127021
0.00120986
0.00114939
0.00108904
0.00102904
0.000969576
0.000910803
0.00085285
0.000795822
0.000739805
0.000684865
0.000631059
0.000575294
0.00052056
0.000468038
0.000417852
0.000369821
0.000323756
0.00027957
0.000237294
0.000197082
0.000159191
0.000123953
9.18461e-05
6.3369e-05
3.8524e-05
1.7673e-05
5.17073e-06
7.46898e-07
4.11553e-08
7.89266e-09
0.00195686
0.00195018
0.00193748
0.0019192
0.0018957
0.00186728
0.00183423
0.00179687
0.00175551
0.00171051
0.00166225
0.00161112
0.00155752
0.00150185
0.00144452
0.00138591
0.00132637
0.00126625
0.00120585
0.00114544
0.00108526
0.0010255
0.000966333
0.000907901
0.000850312
0.000793657
0.000738005
0.000683416
0.000629076
0.000573198
0.000518842
0.000466827
0.000417117
0.000369469
0.000323684
0.000279685
0.000237522
0.000197365
0.000159487
0.000124232
9.20874e-05
6.35633e-05
3.86782e-05
1.77628e-05
5.20321e-06
7.52174e-07
4.14437e-08
7.93463e-09
0.00196376
0.00195686
0.00194371
0.00192482
0.00190059
0.00187137
0.00183749
0.0017993
0.00175714
0.00171139
0.00166243
0.00161069
0.00155656
0.00150046
0.00144278
0.00138392
0.00132422
0.00126401
0.0012036
0.00114325
0.00108316
0.00102355
0.00096456
0.000906321
0.000848936
0.000792486
0.000737036
0.000682638
0.000627818
0.000572019
0.000517924
0.000466198
0.000416743
0.000369295
0.000323656
0.000279753
0.000237648
0.000197518
0.000159646
0.000124381
9.22162e-05
6.36669e-05
3.87603e-05
1.78106e-05
5.2205e-06
7.54985e-07
4.15974e-08
7.95694e-09
)
;

boundaryField
{
    inlet
    {
        type            cyclic;
    }
    outlet
    {
        type            cyclic;
    }
    walls
    {
        type            nutLowReWallFunction;
        blending        stepwise;
        Cmu             0.09;
        kappa           0.41;
        E               9.8;
        value           uniform 0;
    }
    symPlanes
    {
        type            symmetry;
    }
}


// ************************************************************************* //
