/*--------------------------------*- C++ -*----------------------------------*\
| =========                 |                                                 |
| \\      /  F ield         | OpenFOAM: The Open Source CFD Toolbox           |
|  \\    /   O peration     | Version:  2112                                  |
|   \\  /    A nd           | Website:  www.openfoam.com                      |
|    \\/     M anipulation  |                                                 |
\*---------------------------------------------------------------------------*/
FoamFile
{
    version     2.0;
    format      ascii;
    arch        "LSB;label=32;scalar=64";
    class       volScalarField;
    location    "11000";
    object      p;
}
// * * * * * * * * * * * * * * * * * * * * * * * * * * * * * * * * * * * * * //

dimensions      [0 2 -2 0 0 0 0];

internalField   nonuniform List<scalar> 
2304
(
4.32918e-19
-1.2752e-17
-1.69139e-17
-1.59948e-17
-1.63011e-17
-1.65575e-17
-1.68039e-17
-1.67579e-17
-1.66948e-17
-1.72279e-17
-1.71891e-17
-1.78408e-17
-1.82209e-17
-1.91078e-17
-1.98199e-17
-2.05743e-17
-2.12893e-17
-2.23225e-17
-2.32482e-17
-2.40883e-17
-2.50255e-17
-2.57259e-17
-2.63411e-17
-2.69335e-17
-2.7478e-17
-2.79392e-17
-2.83655e-17
-2.87727e-17
-2.91687e-17
-2.94929e-17
-2.97598e-17
-3.00355e-17
-3.02688e-17
-3.04801e-17
-3.06857e-17
-3.08365e-17
-3.09788e-17
-3.11171e-17
-3.12205e-17
-3.13138e-17
-3.13918e-17
-3.14632e-17
-3.15189e-17
-3.15552e-17
-3.15792e-17
-3.15952e-17
-3.16014e-17
-3.15996e-17
4.7035e-18
-1.25832e-17
-1.68645e-17
-1.59938e-17
-1.63031e-17
-1.65434e-17
-1.67969e-17
-1.67515e-17
-1.66935e-17
-1.72206e-17
-1.71962e-17
-1.78168e-17
-1.82105e-17
-1.90662e-17
-1.9828e-17
-2.05541e-17
-2.12874e-17
-2.23324e-17
-2.32584e-17
-2.40935e-17
-2.50134e-17
-2.57131e-17
-2.63357e-17
-2.69178e-17
-2.74574e-17
-2.79242e-17
-2.83457e-17
-2.87448e-17
-2.91605e-17
-2.94836e-17
-2.97607e-17
-3.00201e-17
-3.02684e-17
-3.04665e-17
-3.06697e-17
-3.08246e-17
-3.09627e-17
-3.11081e-17
-3.12103e-17
-3.13024e-17
-3.13797e-17
-3.14545e-17
-3.15002e-17
-3.15425e-17
-3.15689e-17
-3.15839e-17
-3.15907e-17
-3.15899e-17
3.28266e-18
-1.26715e-17
-1.68474e-17
-1.59959e-17
-1.62815e-17
-1.65497e-17
-1.68181e-17
-1.67643e-17
-1.66913e-17
-1.72262e-17
-1.72277e-17
-1.77993e-17
-1.82685e-17
-1.9038e-17
-1.98111e-17
-2.05408e-17
-2.12919e-17
-2.23548e-17
-2.32802e-17
-2.40755e-17
-2.50469e-17
-2.56988e-17
-2.63402e-17
-2.69168e-17
-2.74721e-17
-2.794e-17
-2.83565e-17
-2.87447e-17
-2.91698e-17
-2.94749e-17
-2.97423e-17
-3.00197e-17
-3.03001e-17
-3.04697e-17
-3.06724e-17
-3.08132e-17
-3.09531e-17
-3.11068e-17
-3.12052e-17
-3.12954e-17
-3.137e-17
-3.14392e-17
-3.14869e-17
-3.15363e-17
-3.1564e-17
-3.15765e-17
-3.15813e-17
-3.15831e-17
1.13949e-19
-1.29003e-17
-1.6876e-17
-1.60229e-17
-1.62892e-17
-1.65378e-17
-1.68082e-17
-1.67447e-17
-1.6632e-17
-1.72294e-17
-1.71524e-17
-1.77724e-17
-1.8123e-17
-1.90083e-17
-1.97438e-17
-2.0562e-17
-2.12722e-17
-2.23055e-17
-2.33128e-17
-2.40695e-17
-2.51371e-17
-2.57188e-17
-2.63237e-17
-2.69421e-17
-2.75113e-17
-2.80216e-17
-2.83846e-17
-2.87324e-17
-2.9148e-17
-2.94613e-17
-2.96964e-17
-3.0024e-17
-3.02742e-17
-3.04574e-17
-3.06691e-17
-3.0811e-17
-3.09539e-17
-3.10756e-17
-3.12007e-17
-3.12935e-17
-3.13691e-17
-3.14547e-17
-3.15001e-17
-3.15373e-17
-3.15609e-17
-3.15768e-17
-3.15823e-17
-3.15804e-17
-1.99208e-18
-1.30508e-17
-1.69556e-17
-1.60812e-17
-1.63071e-17
-1.67419e-17
-1.68717e-17
-1.67011e-17
-1.6664e-17
-1.71726e-17
-1.71051e-17
-1.77595e-17
-1.8113e-17
-1.90232e-17
-1.97828e-17
-2.04898e-17
-2.12433e-17
-2.23409e-17
-2.33241e-17
-2.40491e-17
-2.51877e-17
-2.57069e-17
-2.62995e-17
-2.70326e-17
-2.75906e-17
-2.80183e-17
-2.83617e-17
-2.87349e-17
-2.91635e-17
-2.94629e-17
-2.97629e-17
-3.00257e-17
-3.02182e-17
-3.04158e-17
-3.06635e-17
-3.08176e-17
-3.09605e-17
-3.10838e-17
-3.11939e-17
-3.12981e-17
-3.13848e-17
-3.14557e-17
-3.14822e-17
-3.15211e-17
-3.15526e-17
-3.15737e-17
-3.15818e-17
-3.15781e-17
-3.49912e-18
-1.34338e-17
-1.69588e-17
-1.61835e-17
-1.62708e-17
-1.66863e-17
-1.69658e-17
-1.66506e-17
-1.66479e-17
-1.7066e-17
-1.68611e-17
-1.7725e-17
-1.79412e-17
-1.90959e-17
-1.96035e-17
-2.04012e-17
-2.12256e-17
-2.22328e-17
-2.3199e-17
-2.40266e-17
-2.5086e-17
-2.57412e-17
-2.65055e-17
-2.69561e-17
-2.75221e-17
-2.79899e-17
-2.83629e-17
-2.86762e-17
-2.92107e-17
-2.94813e-17
-2.97486e-17
-3.00472e-17
-3.02792e-17
-3.04242e-17
-3.0637e-17
-3.07943e-17
-3.09729e-17
-3.10782e-17
-3.1167e-17
-3.12912e-17
-3.13682e-17
-3.14466e-17
-3.14908e-17
-3.1517e-17
-3.15416e-17
-3.15559e-17
-3.15598e-17
-3.15661e-17
-4.76748e-18
-1.36037e-17
-1.70224e-17
-1.64208e-17
-1.64373e-17
-1.67057e-17
-1.68798e-17
-1.67438e-17
-1.64474e-17
-1.72424e-17
-1.67883e-17
-1.77299e-17
-1.79724e-17
-1.91294e-17
-1.98568e-17
-2.04064e-17
-2.10653e-17
-2.21679e-17
-2.3194e-17
-2.4031e-17
-2.50914e-17
-2.58325e-17
-2.63357e-17
-2.69997e-17
-2.75832e-17
-2.79287e-17
-2.84666e-17
-2.86832e-17
-2.91876e-17
-2.96038e-17
-2.97688e-17
-3.00918e-17
-3.03513e-17
-3.04899e-17
-3.06284e-17
-3.07826e-17
-3.09529e-17
-3.10766e-17
-3.11819e-17
-3.12932e-17
-3.13415e-17
-3.14394e-17
-3.15217e-17
-3.15431e-17
-3.15473e-17
-3.15414e-17
-3.15514e-17
-3.15559e-17
-6.5332e-18
-1.40777e-17
-1.72217e-17
-1.67643e-17
-1.65494e-17
-1.69114e-17
-1.70722e-17
-1.71506e-17
-1.64553e-17
-1.74269e-17
-1.71539e-17
-1.76767e-17
-1.80571e-17
-1.89613e-17
-1.96617e-17
-2.03343e-17
-2.10338e-17
-2.20966e-17
-2.33621e-17
-2.39974e-17
-2.53111e-17
-2.58906e-17
-2.60976e-17
-2.68699e-17
-2.78065e-17
-2.79582e-17
-2.85086e-17
-2.88272e-17
-2.92411e-17
-2.97087e-17
-2.97883e-17
-2.9957e-17
-3.02717e-17
-3.03357e-17
-3.06406e-17
-3.07499e-17
-3.09941e-17
-3.10794e-17
-3.11836e-17
-3.13413e-17
-3.13685e-17
-3.14587e-17
-3.15161e-17
-3.15437e-17
-3.15437e-17
-3.15575e-17
-3.15598e-17
-3.15508e-17
-8.15809e-18
-1.47334e-17
-1.77447e-17
-1.67949e-17
-1.68543e-17
-1.70649e-17
-1.72031e-17
-1.66924e-17
-1.64868e-17
-1.76079e-17
-1.76506e-17
-1.75003e-17
-1.83846e-17
-1.85029e-17
-1.92909e-17
-2.02472e-17
-2.09505e-17
-2.18111e-17
-2.32905e-17
-2.36559e-17
-2.5006e-17
-2.56168e-17
-2.66641e-17
-2.65565e-17
-2.76692e-17
-2.78763e-17
-2.86222e-17
-2.89591e-17
-2.91321e-17
-2.9531e-17
-2.96885e-17
-2.98824e-17
-3.02157e-17
-3.03608e-17
-3.06754e-17
-3.07973e-17
-3.09544e-17
-3.10566e-17
-3.1173e-17
-3.13073e-17
-3.13195e-17
-3.1403e-17
-3.14598e-17
-3.15195e-17
-3.15095e-17
-3.15355e-17
-3.15394e-17
-3.15322e-17
-9.77976e-18
-1.51899e-17
-1.84807e-17
-1.70013e-17
-1.69867e-17
-1.72499e-17
-1.71599e-17
-1.65319e-17
-1.65734e-17
-1.72191e-17
-1.69662e-17
-1.73629e-17
-1.7749e-17
-1.85612e-17
-1.9357e-17
-2.03552e-17
-2.06448e-17
-2.13857e-17
-2.28673e-17
-2.38394e-17
-2.49016e-17
-2.56776e-17
-2.68331e-17
-2.70658e-17
-2.80305e-17
-2.76094e-17
-2.81145e-17
-2.86846e-17
-2.90757e-17
-2.95969e-17
-2.99172e-17
-2.98086e-17
-3.01473e-17
-3.03765e-17
-3.05134e-17
-3.07047e-17
-3.10524e-17
-3.10606e-17
-3.11821e-17
-3.13827e-17
-3.13321e-17
-3.1411e-17
-3.1459e-17
-3.14778e-17
-3.14896e-17
-3.15232e-17
-3.15232e-17
-3.15146e-17
-1.1163e-17
-1.55323e-17
-1.86057e-17
-1.74047e-17
-1.78579e-17
-1.74836e-17
-1.74187e-17
-1.74299e-17
-1.64903e-17
-1.73141e-17
-1.67851e-17
-1.72129e-17
-1.69895e-17
-1.863e-17
-1.92141e-17
-2.01666e-17
-2.06571e-17
-2.14492e-17
-2.24654e-17
-2.32812e-17
-2.49661e-17
-2.59277e-17
-2.66741e-17
-2.68343e-17
-2.75776e-17
-2.75003e-17
-2.82053e-17
-2.88013e-17
-2.89437e-17
-2.93475e-17
-2.97576e-17
-2.99085e-17
-3.02389e-17
-3.04457e-17
-3.06421e-17
-3.09492e-17
-3.10671e-17
-3.10689e-17
-3.10209e-17
-3.12483e-17
-3.12892e-17
-3.13851e-17
-3.14313e-17
-3.14608e-17
-3.14756e-17
-3.14994e-17
-3.15059e-17
-3.14972e-17
-1.30257e-17
-1.63918e-17
-1.84308e-17
-1.82883e-17
-1.83374e-17
-1.80145e-17
-1.77101e-17
-1.78854e-17
-1.69203e-17
-1.72002e-17
-1.63237e-17
-1.71163e-17
-1.7313e-17
-1.80067e-17
-1.90049e-17
-1.97916e-17
-2.03811e-17
-2.14785e-17
-2.25786e-17
-2.33034e-17
-2.46002e-17
-2.59456e-17
-2.61547e-17
-2.65643e-17
-2.73265e-17
-2.78595e-17
-2.81376e-17
-2.82707e-17
-2.88855e-17
-2.90482e-17
-2.97119e-17
-3.01523e-17
-3.02808e-17
-3.05174e-17
-3.06774e-17
-3.08127e-17
-3.07641e-17
-3.09857e-17
-3.1054e-17
-3.13053e-17
-3.127e-17
-3.13468e-17
-3.14112e-17
-3.14263e-17
-3.1489e-17
-3.14965e-17
-3.15115e-17
-3.14949e-17
-1.4625e-17
-1.78625e-17
-1.88659e-17
-1.86835e-17
-1.94836e-17
-1.92244e-17
-1.80059e-17
-1.78009e-17
-1.73005e-17
-1.71888e-17
-1.72354e-17
-1.68708e-17
-1.71788e-17
-1.7273e-17
-1.95305e-17
-1.96596e-17
-2.0252e-17
-2.09373e-17
-2.24787e-17
-2.31912e-17
-2.44999e-17
-2.55657e-17
-2.5879e-17
-2.61384e-17
-2.7117e-17
-2.7923e-17
-2.85746e-17
-2.86361e-17
-2.87903e-17
-2.92034e-17
-2.97768e-17
-3.00557e-17
-3.02356e-17
-3.06423e-17
-3.07224e-17
-3.08279e-17
-3.10516e-17
-3.10436e-17
-3.11231e-17
-3.13011e-17
-3.12678e-17
-3.12985e-17
-3.14562e-17
-3.14282e-17
-3.1482e-17
-3.14607e-17
-3.14473e-17
-3.14485e-17
-1.58753e-17
-1.75676e-17
-1.93815e-17
-1.96662e-17
-1.91926e-17
-1.89275e-17
-1.82615e-17
-1.77416e-17
-1.72984e-17
-1.67549e-17
-1.74206e-17
-1.60682e-17
-1.65813e-17
-1.71688e-17
-1.85667e-17
-1.85876e-17
-1.97926e-17
-2.07847e-17
-2.25483e-17
-2.32616e-17
-2.44437e-17
-2.49711e-17
-2.55871e-17
-2.62682e-17
-2.69373e-17
-2.73238e-17
-2.83138e-17
-2.84585e-17
-2.85307e-17
-2.89696e-17
-3.00257e-17
-3.03171e-17
-3.03031e-17
-3.03917e-17
-3.08985e-17
-3.08644e-17
-3.11076e-17
-3.0982e-17
-3.08707e-17
-3.11295e-17
-3.12211e-17
-3.1249e-17
-3.13356e-17
-3.13665e-17
-3.13836e-17
-3.14226e-17
-3.14014e-17
-3.14054e-17
-1.60775e-17
-1.74937e-17
-2.00002e-17
-2.17632e-17
-1.88674e-17
-1.82767e-17
-1.85354e-17
-1.76789e-17
-1.77426e-17
-1.70567e-17
-1.59761e-17
-1.74562e-17
-1.64483e-17
-1.69275e-17
-1.77498e-17
-1.84293e-17
-1.93289e-17
-2.04353e-17
-2.21477e-17
-2.28208e-17
-2.45675e-17
-2.42827e-17
-2.52347e-17
-2.64056e-17
-2.68501e-17
-2.66353e-17
-2.76081e-17
-2.85902e-17
-2.92275e-17
-2.92209e-17
-3.0167e-17
-3.01582e-17
-3.02783e-17
-3.04003e-17
-3.05492e-17
-3.07478e-17
-3.10722e-17
-3.07278e-17
-3.08741e-17
-3.10041e-17
-3.11055e-17
-3.1261e-17
-3.12969e-17
-3.13165e-17
-3.13383e-17
-3.13627e-17
-3.13619e-17
-3.13698e-17
-1.91637e-17
-1.85829e-17
-2.06769e-17
-2.11287e-17
-1.94708e-17
-1.94781e-17
-1.89384e-17
-1.8839e-17
-1.73904e-17
-1.69545e-17
-1.6137e-17
-1.7154e-17
-1.60796e-17
-1.66085e-17
-1.68906e-17
-1.82103e-17
-1.84199e-17
-2.10192e-17
-2.11907e-17
-2.24313e-17
-2.35819e-17
-2.44925e-17
-2.47505e-17
-2.58076e-17
-2.59592e-17
-2.70056e-17
-2.71124e-17
-2.82845e-17
-2.90801e-17
-2.87803e-17
-2.92853e-17
-2.98651e-17
-3.02342e-17
-3.03621e-17
-3.04761e-17
-3.04258e-17
-3.07845e-17
-3.08585e-17
-3.08621e-17
-3.10494e-17
-3.11407e-17
-3.11893e-17
-3.11367e-17
-3.12413e-17
-3.12672e-17
-3.12899e-17
-3.129e-17
-3.12915e-17
-2.24918e-17
-2.02125e-17
-2.29181e-17
-2.02202e-17
-1.99791e-17
-1.87099e-17
-1.93326e-17
-2.02378e-17
-1.6409e-17
-1.69036e-17
-1.60548e-17
-1.59998e-17
-1.60302e-17
-1.56664e-17
-1.57519e-17
-1.74974e-17
-1.68448e-17
-2.02692e-17
-2.1547e-17
-2.2479e-17
-2.30656e-17
-2.44572e-17
-2.49472e-17
-2.55664e-17
-2.63088e-17
-2.66642e-17
-2.7214e-17
-2.85072e-17
-2.86415e-17
-2.87585e-17
-2.93754e-17
-2.97141e-17
-3.04095e-17
-3.03165e-17
-3.05877e-17
-3.03205e-17
-3.08559e-17
-3.0893e-17
-3.10599e-17
-3.10489e-17
-3.10642e-17
-3.11839e-17
-3.11875e-17
-3.12104e-17
-3.1253e-17
-3.12705e-17
-3.12768e-17
-3.12692e-17
-2.27021e-17
-2.08315e-17
-2.18398e-17
-2.14603e-17
-1.97599e-17
-1.95006e-17
-1.97223e-17
-1.98016e-17
-1.74512e-17
-1.64902e-17
-1.46787e-17
-1.59976e-17
-1.47466e-17
-1.38793e-17
-1.63558e-17
-1.65415e-17
-1.73357e-17
-2.00703e-17
-2.06513e-17
-2.16703e-17
-2.1674e-17
-2.3696e-17
-2.45151e-17
-2.52304e-17
-2.68793e-17
-2.61673e-17
-2.68011e-17
-2.81041e-17
-2.89271e-17
-3.06176e-17
-2.96985e-17
-2.9141e-17
-3.01779e-17
-3.02308e-17
-3.05497e-17
-3.02998e-17
-3.08141e-17
-3.08741e-17
-3.07754e-17
-3.09791e-17
-3.10496e-17
-3.11124e-17
-3.11686e-17
-3.1165e-17
-3.12292e-17
-3.12719e-17
-3.12527e-17
-3.12493e-17
-2.20835e-17
-1.81498e-17
-2.15817e-17
-2.37297e-17
-2.02829e-17
-1.83842e-17
-2.01528e-17
-1.96618e-17
-1.78143e-17
-1.7375e-17
-1.45627e-17
-1.51583e-17
-1.67995e-17
-1.34427e-17
-1.36444e-17
-1.61846e-17
-1.55267e-17
-2.14575e-17
-2.05148e-17
-1.96279e-17
-1.98763e-17
-2.34096e-17
-2.47003e-17
-2.56142e-17
-2.61969e-17
-2.68634e-17
-2.73134e-17
-2.80057e-17
-2.84199e-17
-2.92295e-17
-3.05578e-17
-2.97874e-17
-2.97372e-17
-2.97496e-17
-2.99472e-17
-3.03933e-17
-3.05959e-17
-3.11547e-17
-3.06489e-17
-3.09532e-17
-3.11941e-17
-3.11812e-17
-3.11479e-17
-3.10907e-17
-3.11804e-17
-3.12286e-17
-3.12227e-17
-3.12317e-17
-2.17076e-17
-2.19871e-17
-2.56396e-17
-2.30504e-17
-2.35151e-17
-1.87753e-17
-2.08945e-17
-2.02712e-17
-1.74003e-17
-1.87245e-17
-1.51388e-17
-1.40535e-17
-1.63992e-17
-1.29136e-17
-1.3452e-17
-1.67297e-17
-1.5204e-17
-1.83947e-17
-2.03605e-17
-2.03042e-17
-2.11039e-17
-2.11065e-17
-2.44297e-17
-2.55182e-17
-2.53987e-17
-2.62446e-17
-2.76368e-17
-2.81084e-17
-2.83152e-17
-2.8905e-17
-3.01856e-17
-2.96031e-17
-2.87017e-17
-2.99124e-17
-3.03162e-17
-3.03674e-17
-3.10149e-17
-3.09081e-17
-3.08621e-17
-3.09615e-17
-3.10263e-17
-3.11377e-17
-3.12144e-17
-3.12278e-17
-3.12572e-17
-3.12753e-17
-3.12921e-17
-3.12878e-17
-2.3363e-17
-2.64838e-17
-2.32954e-17
-2.29323e-17
-2.15396e-17
-2.1457e-17
-2.20542e-17
-2.00952e-17
-1.87457e-17
-1.77794e-17
-1.38687e-17
-1.35997e-17
-1.50541e-17
-1.29575e-17
-1.33151e-17
-1.69664e-17
-1.71592e-17
-1.87231e-17
-2.10277e-17
-2.06226e-17
-2.27872e-17
-2.33014e-17
-2.47418e-17
-2.54757e-17
-2.60937e-17
-2.66835e-17
-2.70851e-17
-2.6734e-17
-2.77793e-17
-2.86376e-17
-2.9194e-17
-2.89117e-17
-2.89786e-17
-2.97449e-17
-3.02547e-17
-3.01251e-17
-3.04699e-17
-3.10031e-17
-3.11521e-17
-3.10152e-17
-3.10482e-17
-3.11375e-17
-3.13025e-17
-3.12826e-17
-3.12827e-17
-3.1306e-17
-3.13177e-17
-3.13283e-17
-2.58633e-17
-2.63662e-17
-2.14369e-17
-2.48768e-17
-2.2417e-17
-2.30596e-17
-2.48258e-17
-2.10474e-17
-1.74898e-17
-1.73988e-17
-1.39395e-17
-1.42543e-17
-1.45832e-17
-1.40476e-17
-1.58104e-17
-1.54537e-17
-1.45285e-17
-1.87357e-17
-2.06209e-17
-2.21151e-17
-2.28409e-17
-2.367e-17
-2.47847e-17
-2.54889e-17
-2.60337e-17
-2.64567e-17
-2.63408e-17
-2.74128e-17
-2.8291e-17
-2.86675e-17
-2.92573e-17
-2.86983e-17
-2.80819e-17
-2.93864e-17
-3.03067e-17
-3.043e-17
-3.03755e-17
-3.094e-17
-3.12712e-17
-3.10158e-17
-3.10421e-17
-3.11484e-17
-3.11823e-17
-3.12429e-17
-3.12611e-17
-3.12877e-17
-3.1312e-17
-3.13214e-17
-2.71743e-17
-2.86051e-17
-2.43189e-17
-2.96835e-17
-2.50575e-17
-2.33966e-17
-2.98726e-17
-2.20239e-17
-1.68526e-17
-1.631e-17
-1.46506e-17
-1.4123e-17
-1.69349e-17
-1.53783e-17
-1.81908e-17
-1.6154e-17
-1.61713e-17
-1.86022e-17
-2.036e-17
-2.27889e-17
-2.14673e-17
-2.38425e-17
-2.35999e-17
-2.56011e-17
-2.60493e-17
-2.49861e-17
-2.52099e-17
-2.73371e-17
-2.74358e-17
-2.73501e-17
-2.68063e-17
-2.7538e-17
-2.92123e-17
-2.95654e-17
-3.02486e-17
-3.0582e-17
-3.07916e-17
-3.13441e-17
-3.16434e-17
-3.10653e-17
-3.11234e-17
-3.11822e-17
-3.12593e-17
-3.13602e-17
-3.13373e-17
-3.13409e-17
-3.13563e-17
-3.13717e-17
-2.83041e-17
-2.76723e-17
-2.39994e-17
-2.96292e-17
-2.73506e-17
-2.11597e-17
-2.7623e-17
-2.38888e-17
-1.94642e-17
-1.54499e-17
-1.34999e-17
-1.30119e-17
-1.44401e-17
-1.14103e-17
-1.53837e-17
-1.60525e-17
-1.79194e-17
-1.8762e-17
-2.09532e-17
-2.16956e-17
-2.18422e-17
-2.43721e-17
-2.36979e-17
-2.69929e-17
-2.83392e-17
-2.75378e-17
-2.9351e-17
-2.86827e-17
-2.77982e-17
-2.77187e-17
-2.98486e-17
-3.12824e-17
-3.04808e-17
-3.01158e-17
-3.02877e-17
-3.03899e-17
-3.01361e-17
-3.07104e-17
-3.08281e-17
-3.08949e-17
-3.11496e-17
-3.12781e-17
-3.13331e-17
-3.13525e-17
-3.13427e-17
-3.13875e-17
-3.13764e-17
-3.13704e-17
-2.95223e-17
-2.50528e-17
-2.44123e-17
-2.85179e-17
-2.4512e-17
-2.52201e-17
-2.99577e-17
-2.74119e-17
-2.21206e-17
-2.0351e-17
-1.69221e-17
-1.83723e-17
-1.528e-17
-1.46565e-17
-1.59255e-17
-1.42628e-17
-1.78499e-17
-1.94249e-17
-2.10794e-17
-2.2329e-17
-2.34352e-17
-2.58435e-17
-2.68633e-17
-2.67503e-17
-2.75242e-17
-2.81788e-17
-2.78234e-17
-2.83627e-17
-3.02254e-17
-2.99964e-17
-2.94659e-17
-3.00216e-17
-2.97631e-17
-2.94562e-17
-3.04567e-17
-3.05834e-17
-3.03928e-17
-3.08337e-17
-3.17271e-17
-3.13843e-17
-3.10942e-17
-3.11957e-17
-3.11414e-17
-3.12976e-17
-3.13526e-17
-3.14028e-17
-3.13751e-17
-3.13557e-17
-3.14664e-17
-2.90706e-17
-3.16883e-17
-2.98434e-17
-2.80201e-17
-2.86011e-17
-2.84778e-17
-2.59313e-17
-2.55358e-17
-1.60852e-17
-1.72118e-17
-1.62524e-17
-1.32737e-17
-1.51631e-17
-1.00719e-17
-1.56434e-17
-1.75887e-17
-2.0037e-17
-2.1443e-17
-2.30599e-17
-2.09732e-17
-2.36734e-17
-2.78074e-17
-2.73458e-17
-2.86292e-17
-2.81027e-17
-2.80877e-17
-2.81317e-17
-2.93431e-17
-2.94545e-17
-2.93538e-17
-2.91631e-17
-3.04121e-17
-3.04074e-17
-3.03716e-17
-3.04956e-17
-3.03299e-17
-3.07586e-17
-3.17675e-17
-3.13273e-17
-3.12081e-17
-3.14244e-17
-3.1365e-17
-3.13622e-17
-3.13429e-17
-3.13722e-17
-3.13843e-17
-3.13872e-17
-3.38848e-17
-3.67296e-17
-3.31395e-17
-3.71701e-17
-2.98925e-17
-3.35958e-17
-3.03814e-17
-2.53519e-17
-2.52966e-17
-1.86243e-17
-1.82373e-17
-1.67713e-17
-1.32942e-17
-1.67049e-17
-1.48137e-17
-1.53343e-17
-1.31383e-17
-2.13098e-17
-2.16356e-17
-2.36981e-17
-2.22576e-17
-2.66356e-17
-2.81144e-17
-2.78363e-17
-2.61244e-17
-2.73398e-17
-2.61247e-17
-2.81888e-17
-2.79564e-17
-2.92842e-17
-3.0676e-17
-3.12206e-17
-3.15205e-17
-3.14696e-17
-3.10726e-17
-3.1354e-17
-3.05668e-17
-3.04424e-17
-3.08867e-17
-3.10298e-17
-3.10671e-17
-3.12233e-17
-3.12569e-17
-3.13255e-17
-3.13488e-17
-3.13401e-17
-3.13549e-17
-3.1357e-17
-3.5808e-17
-3.45359e-17
-3.31954e-17
-3.83341e-17
-3.46658e-17
-3.90291e-17
-3.58204e-17
-2.80572e-17
-2.5494e-17
-2.09104e-17
-1.97263e-17
-1.818e-17
-1.66049e-17
-1.86682e-17
-1.36838e-17
-1.66515e-17
-1.50165e-17
-1.96881e-17
-2.19352e-17
-2.26465e-17
-2.30556e-17
-2.38653e-17
-2.4869e-17
-2.62822e-17
-2.56718e-17
-2.79661e-17
-2.54539e-17
-2.75378e-17
-2.82898e-17
-2.75407e-17
-2.99664e-17
-3.12409e-17
-3.09184e-17
-3.0962e-17
-3.0907e-17
-3.08426e-17
-3.09991e-17
-3.1355e-17
-3.11885e-17
-3.11816e-17
-3.12128e-17
-3.11566e-17
-3.12884e-17
-3.13367e-17
-3.13747e-17
-3.13874e-17
-3.13763e-17
-3.13858e-17
-3.12345e-17
-2.99883e-17
-3.9147e-17
-3.63101e-17
-4.03736e-17
-3.36431e-17
-2.74721e-17
-2.927e-17
-2.29648e-17
-1.83458e-17
-2.14446e-17
-1.96855e-17
-1.82406e-17
-1.75563e-17
-1.52299e-17
-1.83928e-17
-2.3453e-17
-2.1253e-17
-2.50402e-17
-2.18142e-17
-2.51514e-17
-2.61277e-17
-2.66242e-17
-2.73353e-17
-2.50918e-17
-2.52657e-17
-2.82707e-17
-2.92732e-17
-2.92598e-17
-3.00176e-17
-3.04661e-17
-3.00905e-17
-3.05937e-17
-3.07464e-17
-3.07724e-17
-3.07871e-17
-3.04345e-17
-3.07405e-17
-3.07126e-17
-3.10893e-17
-3.13371e-17
-3.13082e-17
-3.13238e-17
-3.1359e-17
-3.13579e-17
-3.14089e-17
-3.1432e-17
-3.14244e-17
-3.38585e-17
-3.49614e-17
-3.78703e-17
-4.31176e-17
-4.0671e-17
-3.3925e-17
-3.85605e-17
-3.16504e-17
-2.51591e-17
-3.16291e-17
-2.3387e-17
-2.1126e-17
-2.18399e-17
-1.50106e-17
-1.8375e-17
-1.87587e-17
-2.07226e-17
-2.07723e-17
-2.36527e-17
-2.43234e-17
-2.80849e-17
-2.71422e-17
-2.61407e-17
-2.86225e-17
-3.15986e-17
-3.11385e-17
-3.24484e-17
-3.06319e-17
-3.10426e-17
-3.05577e-17
-3.04635e-17
-3.0458e-17
-3.13122e-17
-3.09354e-17
-3.06514e-17
-3.09376e-17
-3.09584e-17
-3.17277e-17
-3.17087e-17
-3.14888e-17
-3.14507e-17
-3.16664e-17
-3.16482e-17
-3.16565e-17
-3.16966e-17
-3.16663e-17
-3.16609e-17
-3.16665e-17
-3.24639e-17
-4.20181e-17
-3.33402e-17
-4.39232e-17
-3.93285e-17
-3.98955e-17
-3.9233e-17
-3.22779e-17
-2.95193e-17
-2.83015e-17
-2.25244e-17
-2.10306e-17
-1.82845e-17
-1.58147e-17
-2.37099e-17
-1.78906e-17
-1.94999e-17
-1.75951e-17
-2.43945e-17
-2.51181e-17
-2.76042e-17
-2.83023e-17
-2.45807e-17
-2.89825e-17
-3.06514e-17
-2.90245e-17
-3.08678e-17
-2.95974e-17
-2.9728e-17
-3.00767e-17
-3.01884e-17
-2.93475e-17
-3.04832e-17
-3.08564e-17
-3.10386e-17
-3.07652e-17
-3.02952e-17
-3.1237e-17
-3.1328e-17
-3.14177e-17
-3.13854e-17
-3.14986e-17
-3.1727e-17
-3.15951e-17
-3.15648e-17
-3.1614e-17
-3.16305e-17
-3.16338e-17
-3.60875e-17
-3.3093e-17
-3.68626e-17
-4.05872e-17
-3.93159e-17
-4.00936e-17
-4.233e-17
-2.7637e-17
-3.1435e-17
-2.71661e-17
-2.37324e-17
-2.17253e-17
-2.18438e-17
-1.95799e-17
-2.07583e-17
-1.94021e-17
-2.15084e-17
-2.14631e-17
-2.15551e-17
-2.37074e-17
-2.55919e-17
-2.79804e-17
-2.47864e-17
-2.72071e-17
-2.89003e-17
-3.18965e-17
-3.11549e-17
-3.04567e-17
-3.0507e-17
-3.02337e-17
-3.01504e-17
-3.00733e-17
-3.08528e-17
-3.14811e-17
-3.20413e-17
-3.17801e-17
-3.20847e-17
-3.26374e-17
-3.22624e-17
-3.21995e-17
-3.19782e-17
-3.18135e-17
-3.18938e-17
-3.20939e-17
-3.19532e-17
-3.19036e-17
-3.18983e-17
-3.19258e-17
-4.08686e-17
-4.03318e-17
-3.49465e-17
-3.86709e-17
-4.16721e-17
-3.97145e-17
-4.20527e-17
-2.94807e-17
-3.34271e-17
-2.34893e-17
-1.96933e-17
-2.10954e-17
-2.72579e-17
-1.81583e-17
-1.9869e-17
-1.77399e-17
-1.9429e-17
-2.19677e-17
-2.30937e-17
-2.249e-17
-2.26401e-17
-2.61526e-17
-2.61813e-17
-2.6592e-17
-2.65801e-17
-2.79416e-17
-2.87403e-17
-2.93211e-17
-2.94076e-17
-2.97898e-17
-3.00909e-17
-3.04495e-17
-3.00491e-17
-3.05913e-17
-3.07879e-17
-3.11894e-17
-3.20736e-17
-3.10519e-17
-3.10885e-17
-3.15973e-17
-3.16432e-17
-3.16573e-17
-3.16608e-17
-3.16255e-17
-3.15492e-17
-3.15569e-17
-3.15333e-17
-3.15342e-17
-4.60632e-17
-5.18587e-17
-4.13873e-17
-3.98775e-17
-3.9546e-17
-3.75277e-17
-3.76877e-17
-3.09752e-17
-3.48259e-17
-3.14387e-17
-2.8428e-17
-2.93396e-17
-2.3795e-17
-1.31648e-17
-1.9606e-17
-1.83211e-17
-2.60382e-17
-2.06643e-17
-2.33075e-17
-2.39799e-17
-2.22559e-17
-2.5902e-17
-2.68593e-17
-2.68053e-17
-2.60057e-17
-2.77739e-17
-2.94972e-17
-2.95644e-17
-3.02133e-17
-2.95309e-17
-2.96991e-17
-3.08741e-17
-3.12916e-17
-3.12823e-17
-3.15028e-17
-3.21654e-17
-3.18949e-17
-3.15611e-17
-3.18987e-17
-3.17655e-17
-3.15297e-17
-3.15585e-17
-3.18678e-17
-3.17286e-17
-3.15999e-17
-3.16247e-17
-3.15819e-17
-3.15637e-17
-4.4354e-17
-4.91995e-17
-3.62145e-17
-4.0647e-17
-3.8027e-17
-3.77768e-17
-3.65966e-17
-3.47557e-17
-3.20769e-17
-3.0451e-17
-3.2291e-17
-3.01812e-17
-3.01718e-17
-2.66173e-17
-2.71076e-17
-2.47804e-17
-2.50832e-17
-2.29713e-17
-2.62976e-17
-2.53504e-17
-2.50852e-17
-2.61343e-17
-2.4897e-17
-2.37757e-17
-2.41291e-17
-2.74828e-17
-2.94015e-17
-3.07871e-17
-2.96819e-17
-2.9125e-17
-2.8006e-17
-3.12709e-17
-3.1279e-17
-3.06233e-17
-3.09674e-17
-3.0695e-17
-3.06843e-17
-3.15922e-17
-3.19452e-17
-3.16055e-17
-3.16432e-17
-3.1247e-17
-3.12184e-17
-3.13318e-17
-3.13458e-17
-3.13309e-17
-3.1319e-17
-3.13169e-17
-4.52432e-17
-4.37231e-17
-3.63413e-17
-4.42853e-17
-3.53694e-17
-3.84646e-17
-3.96643e-17
-3.50664e-17
-3.29412e-17
-3.16081e-17
-3.44047e-17
-2.66811e-17
-2.33648e-17
-2.4607e-17
-2.86213e-17
-2.49738e-17
-2.73336e-17
-2.10687e-17
-2.43596e-17
-2.5582e-17
-2.54454e-17
-2.65092e-17
-2.26819e-17
-2.72519e-17
-2.98889e-17
-2.82842e-17
-2.78297e-17
-2.87383e-17
-2.71383e-17
-2.80498e-17
-2.88267e-17
-3.06303e-17
-3.16043e-17
-3.09579e-17
-3.09436e-17
-3.08973e-17
-3.04058e-17
-3.06672e-17
-3.02793e-17
-3.08192e-17
-3.09623e-17
-3.09303e-17
-3.10833e-17
-3.10017e-17
-3.09203e-17
-3.09234e-17
-3.09503e-17
-3.09178e-17
-4.68989e-17
-4.04115e-17
-3.93798e-17
-4.24286e-17
-4.06895e-17
-4.01185e-17
-3.83146e-17
-3.80359e-17
-3.77762e-17
-3.43583e-17
-3.03187e-17
-2.45535e-17
-2.6128e-17
-2.85205e-17
-2.65328e-17
-2.40393e-17
-2.05132e-17
-2.30962e-17
-2.5796e-17
-2.83508e-17
-3.23201e-17
-2.86027e-17
-2.9564e-17
-3.04001e-17
-3.18047e-17
-3.12842e-17
-3.03442e-17
-3.02452e-17
-3.01203e-17
-3.07092e-17
-3.09129e-17
-3.0532e-17
-3.09023e-17
-3.08802e-17
-3.11463e-17
-3.11731e-17
-3.08738e-17
-3.06397e-17
-3.08157e-17
-3.06785e-17
-3.07368e-17
-3.08446e-17
-3.08934e-17
-3.08088e-17
-3.08254e-17
-3.08643e-17
-3.08692e-17
-3.08377e-17
-4.67407e-17
-4.73521e-17
-4.37762e-17
-4.28054e-17
-4.54981e-17
-4.25173e-17
-3.99947e-17
-3.67115e-17
-3.59802e-17
-3.78093e-17
-3.30884e-17
-3.16833e-17
-2.80073e-17
-2.84385e-17
-2.84602e-17
-2.82218e-17
-2.99533e-17
-2.4787e-17
-2.73402e-17
-2.79715e-17
-2.88542e-17
-3.39578e-17
-3.1679e-17
-3.1778e-17
-3.42966e-17
-3.00017e-17
-2.65857e-17
-2.86652e-17
-2.9756e-17
-2.83066e-17
-2.9161e-17
-2.94674e-17
-2.89268e-17
-2.85553e-17
-2.92756e-17
-3.05609e-17
-3.09598e-17
-3.00068e-17
-2.94457e-17
-2.98207e-17
-2.95896e-17
-2.98361e-17
-2.99957e-17
-3.017e-17
-3.01679e-17
-3.01469e-17
-3.01168e-17
-3.01286e-17
-4.61138e-17
-5.62627e-17
-4.69781e-17
-4.11342e-17
-3.88998e-17
-4.86318e-17
-4.22763e-17
-3.78633e-17
-3.67059e-17
-4.74867e-17
-3.80717e-17
-3.59165e-17
-3.10953e-17
-3.53362e-17
-3.42241e-17
-2.93064e-17
-2.86097e-17
-2.81599e-17
-2.84612e-17
-2.69019e-17
-2.88688e-17
-2.90307e-17
-3.21817e-17
-3.06792e-17
-3.19809e-17
-3.20747e-17
-3.14259e-17
-3.1305e-17
-3.20431e-17
-3.09878e-17
-3.05041e-17
-3.02853e-17
-2.97767e-17
-2.91441e-17
-2.95781e-17
-2.96778e-17
-2.97067e-17
-2.96514e-17
-2.95969e-17
-2.98323e-17
-2.98309e-17
-2.96577e-17
-2.97681e-17
-2.98574e-17
-2.98654e-17
-2.99233e-17
-2.99232e-17
-2.9923e-17
-5.04832e-17
-4.83174e-17
-4.84572e-17
-4.8041e-17
-5.09671e-17
-4.58974e-17
-3.88778e-17
-3.63488e-17
-4.58627e-17
-3.62679e-17
-3.53523e-17
-4.36492e-17
-3.47425e-17
-3.6835e-17
-3.22135e-17
-2.69069e-17
-2.67342e-17
-3.00077e-17
-3.38617e-17
-3.10033e-17
-2.87208e-17
-3.04663e-17
-3.13158e-17
-3.1051e-17
-2.81314e-17
-3.10805e-17
-3.40053e-17
-2.95047e-17
-3.01144e-17
-3.04712e-17
-3.02188e-17
-2.94372e-17
-2.78712e-17
-2.86177e-17
-2.87009e-17
-2.94173e-17
-2.93686e-17
-2.9311e-17
-2.95226e-17
-2.93205e-17
-2.94416e-17
-2.95231e-17
-2.95811e-17
-2.96086e-17
-2.9648e-17
-2.96736e-17
-2.96853e-17
-2.9688e-17
-5.66781e-17
-4.56581e-17
-5.02292e-17
-4.91977e-17
-5.32788e-17
-4.46786e-17
-4.5025e-17
-4.72256e-17
-4.44761e-17
-4.20912e-17
-3.8355e-17
-3.81591e-17
-3.54895e-17
-2.85942e-17
-3.15551e-17
-3.01334e-17
-2.96694e-17
-3.02451e-17
-3.32541e-17
-2.90092e-17
-2.66876e-17
-2.93056e-17
-2.86859e-17
-3.01695e-17
-3.02228e-17
-2.95447e-17
-2.70089e-17
-2.80201e-17
-2.95152e-17
-3.01415e-17
-3.00294e-17
-3.13691e-17
-3.10214e-17
-2.98744e-17
-2.93709e-17
-2.89438e-17
-2.91602e-17
-2.93343e-17
-2.94373e-17
-2.95041e-17
-2.94574e-17
-2.95953e-17
-2.98606e-17
-2.96825e-17
-2.96369e-17
-2.97116e-17
-2.97114e-17
-2.97141e-17
-5.91359e-17
-6.22037e-17
-5.55585e-17
-5.42683e-17
-5.33378e-17
-5.31305e-17
-4.96065e-17
-4.39975e-17
-4.79573e-17
-4.43616e-17
-4.26955e-17
-4.2401e-17
-4.31881e-17
-2.40755e-17
-3.16729e-17
-3.14406e-17
-3.02321e-17
-2.8623e-17
-3.83754e-17
-3.14218e-17
-2.93358e-17
-2.84772e-17
-2.93005e-17
-2.91094e-17
-2.94032e-17
-3.11013e-17
-2.83604e-17
-3.05401e-17
-3.44066e-17
-3.11307e-17
-3.02536e-17
-3.08751e-17
-2.93383e-17
-2.94427e-17
-2.95921e-17
-2.94315e-17
-2.92401e-17
-3.01935e-17
-2.97575e-17
-2.96024e-17
-2.96554e-17
-2.99562e-17
-2.99827e-17
-2.99984e-17
-3.00101e-17
-3.0021e-17
-3.00524e-17
-3.00474e-17
-5.86793e-17
-5.73309e-17
-5.72569e-17
-5.91689e-17
-6.10841e-17
-6.49496e-17
-5.66009e-17
-4.01569e-17
-5.54378e-17
-5.56069e-17
-3.91978e-17
-3.86161e-17
-3.86151e-17
-3.37625e-17
-3.24956e-17
-3.49855e-17
-3.18419e-17
-3.19501e-17
-3.54479e-17
-3.37375e-17
-3.31983e-17
-3.81074e-17
-3.42148e-17
-3.20428e-17
-2.77598e-17
-2.98402e-17
-2.87962e-17
-2.84464e-17
-2.809e-17
-3.02539e-17
-3.01933e-17
-2.93252e-17
-2.88886e-17
-2.83326e-17
-2.90408e-17
-3.056e-17
-3.01752e-17
-3.04268e-17
-3.01366e-17
-3.00724e-17
-3.0198e-17
-3.0292e-17
-3.0271e-17
-3.03501e-17
-3.03487e-17
-3.03593e-17
-3.03788e-17
-3.03557e-17
-5.95482e-17
-5.87053e-17
-5.73822e-17
-6.41197e-17
-5.86092e-17
-6.22806e-17
-5.86974e-17
-5.44247e-17
-5.01069e-17
-5.08823e-17
-4.17744e-17
-4.0291e-17
-3.62658e-17
-2.89369e-17
-2.46312e-17
-2.75597e-17
-2.46351e-17
-2.49511e-17
-1.9462e-17
-2.67121e-17
-3.21195e-17
-3.27883e-17
-3.16684e-17
-3.34662e-17
-3.17386e-17
-3.3204e-17
-3.23468e-17
-3.44031e-17
-3.40121e-17
-3.12837e-17
-2.92504e-17
-2.81689e-17
-3.0188e-17
-3.03169e-17
-3.06189e-17
-3.03987e-17
-3.04665e-17
-3.0815e-17
-3.11918e-17
-3.0938e-17
-3.11295e-17
-3.14115e-17
-3.14212e-17
-3.12318e-17
-3.10983e-17
-3.11577e-17
-3.11703e-17
-3.11894e-17
-7.6845e-17
-6.06229e-17
-6.60947e-17
-7.22629e-17
-5.5593e-17
-6.76388e-17
-5.19346e-17
-6.40922e-17
-5.42503e-17
-4.40083e-17
-3.77786e-17
-4.02192e-17
-3.38532e-17
-3.26719e-17
-3.08552e-17
-2.72325e-17
-3.49234e-17
-2.72793e-17
-2.88659e-17
-2.57969e-17
-2.7891e-17
-2.96309e-17
-3.31321e-17
-3.44918e-17
-3.03794e-17
-2.97872e-17
-2.99816e-17
-2.70745e-17
-2.70257e-17
-2.67822e-17
-2.83914e-17
-2.88944e-17
-3.00802e-17
-2.97257e-17
-2.99439e-17
-3.06594e-17
-3.04149e-17
-2.98682e-17
-3.0888e-17
-3.09362e-17
-3.11337e-17
-3.09688e-17
-3.11965e-17
-3.10838e-17
-3.10652e-17
-3.10975e-17
-3.10927e-17
-3.10769e-17
-6.74876e-17
-6.30273e-17
-6.62528e-17
-6.99735e-17
-6.59435e-17
-6.84865e-17
-6.95392e-17
-6.2479e-17
-5.38659e-17
-5.50472e-17
-4.34487e-17
-4.46907e-17
-4.93329e-17
-4.60016e-17
-3.39823e-17
-2.81512e-17
-2.98574e-17
-2.66952e-17
-2.51182e-17
-2.50179e-17
-2.48061e-17
-2.30189e-17
-2.62901e-17
-2.76366e-17
-2.78655e-17
-2.82228e-17
-2.86226e-17
-2.89209e-17
-3.06923e-17
-2.99869e-17
-3.00133e-17
-3.02434e-17
-3.05868e-17
-3.09042e-17
-3.09743e-17
-3.19928e-17
-3.17578e-17
-3.14189e-17
-3.14286e-17
-3.16758e-17
-3.17664e-17
-3.17233e-17
-3.17088e-17
-3.17144e-17
-3.16968e-17
-3.17034e-17
-3.171e-17
-3.17197e-17
-6.40946e-17
-5.95e-17
-6.5808e-17
-6.75246e-17
-6.86831e-17
-6.14573e-17
-6.80565e-17
-6.37239e-17
-6.04955e-17
-6.57327e-17
-5.6514e-17
-3.41155e-17
-3.17342e-17
-4.35497e-17
-2.79523e-17
-2.27255e-17
-2.2665e-17
-2.00206e-17
-1.48814e-17
-2.46507e-17
-2.98197e-17
-2.63237e-17
-2.36753e-17
-2.05984e-17
-2.41775e-17
-2.6094e-17
-2.79555e-17
-2.49392e-17
-2.33439e-17
-2.49675e-17
-2.8989e-17
-2.98081e-17
-3.11753e-17
-3.05678e-17
-3.05846e-17
-2.97393e-17
-3.03658e-17
-3.06323e-17
-3.08341e-17
-3.09864e-17
-3.14245e-17
-3.16568e-17
-3.14883e-17
-3.12885e-17
-3.1282e-17
-3.1322e-17
-3.13658e-17
-3.13319e-17