/*--------------------------------*- C++ -*----------------------------------*\
| =========                 |                                                 |
| \\      /  F ield         | OpenFOAM: The Open Source CFD Toolbox           |
|  \\    /   O peration     | Version:  2112                                  |
|   \\  /    A nd           | Website:  www.openfoam.com                      |
|    \\/     M anipulation  |                                                 |
\*---------------------------------------------------------------------------*/
FoamFile
{
    version     2.0;
    format      ascii;
    arch        "LSB;label=32;scalar=64";
    class       volVectorField;
    location    "0";
    object      vorticity;
}
// * * * * * * * * * * * * * * * * * * * * * * * * * * * * * * * * * * * * * //

dimensions      [0 0 -1 0 0 0 0];

internalField   nonuniform List<vector> 
2304
(
(-8.67052e-15 17.0556 0.00072446)
(-2.32675e-14 17.032 0.00215221)
(-1.59432e-14 16.9875 0.00355254)
(-7.81235e-15 16.9243 0.00493974)
(-8.82591e-15 16.8442 0.00632765)
(-8.0314e-15 16.7486 0.00773778)
(-7.25531e-15 16.6388 0.00918052)
(-5.26829e-15 16.5157 0.0106602)
(-5.96477e-15 16.3801 0.0121939)
(-5.36501e-15 16.2328 0.0137952)
(-4.91956e-15 16.0742 0.0154648)
(-5.31819e-15 15.9049 0.0172198)
(-5.16269e-15 15.7252 0.0190692)
(-5.50756e-15 15.5354 0.0210279)
(-4.80444e-15 15.3357 0.0231075)
(-4.46432e-15 15.1263 0.0253269)
(-5.32543e-15 14.9071 0.0277059)
(-6.05406e-15 14.6781 0.0302639)
(-5.5006e-15 14.439 0.033049)
(-5.70308e-15 14.1895 0.036117)
(-5.51145e-15 13.9287 0.0395318)
(-4.77425e-15 13.6556 0.0433137)
(-4.65359e-15 13.3695 0.0474465)
(-4.5619e-15 13.0701 0.0519597)
(-4.24396e-15 12.7566 0.0569614)
(-3.90824e-15 12.4278 0.062537)
(-3.79846e-15 12.0826 0.0687065)
(-3.89808e-15 11.72 0.0754952)
(-3.73276e-15 11.3391 0.0829415)
(-3.30886e-15 10.9393 0.0911152)
(-3.14329e-15 10.5194 0.100131)
(-3.04013e-15 10.0782 0.110061)
(-2.79416e-15 9.61466 0.120976)
(-2.60921e-15 9.12767 0.132901)
(-2.3672e-15 8.61648 0.145808)
(-2.09561e-15 8.08072 0.159641)
(-1.90655e-15 7.52066 0.174213)
(-1.67325e-15 6.93745 0.189225)
(-1.43552e-15 6.33334 0.204308)
(-1.23648e-15 5.71164 0.219083)
(-1.07124e-15 5.07654 0.233271)
(-8.83457e-16 4.43234 0.246859)
(-6.86788e-16 3.78262 0.260223)
(-5.14511e-16 3.12918 0.274195)
(-3.53042e-16 2.47137 0.290199)
(-2.14375e-16 1.80524 0.310877)
(-9.76101e-17 1.12213 0.34251)
(-5.37052e-17 0.404401 0.404401)
(-2.14002e-15 16.8359 0.00220622)
(-8.34876e-15 16.8125 0.00655389)
(-4.76759e-15 16.7685 0.0108074)
(-1.18359e-15 16.7061 0.0150291)
(-2.6284e-15 16.6268 0.0192648)
(-2.38818e-15 16.5321 0.0235533)
(-2.1597e-15 16.4233 0.027934)
(-1.11368e-15 16.3014 0.0324437)
(-1.78367e-15 16.1671 0.0371176)
(-1.56356e-15 16.0211 0.0419792)
(-1.41918e-15 15.864 0.0470662)
(-1.8521e-15 15.6962 0.0524113)
(-1.90681e-15 15.5182 0.0580431)
(-2.23315e-15 15.3299 0.0640038)
(-1.9604e-15 15.1318 0.0703349)
(-1.85133e-15 14.9239 0.0770866)
(-2.45193e-15 14.7065 0.0843205)
(-3.1084e-15 14.4792 0.0921189)
(-2.9677e-15 14.2418 0.100594)
(-3.11429e-15 13.9941 0.109922)
(-3.02223e-15 13.735 0.120308)
(-2.64625e-15 13.4638 0.131821)
(-2.55192e-15 13.1796 0.144404)
(-2.46821e-15 12.882 0.158146)
(-2.29292e-15 12.5705 0.173344)
(-2.13115e-15 12.2438 0.190291)
(-2.07585e-15 11.9007 0.209092)
(-2.10752e-15 11.5402 0.229744)
(-2.03948e-15 11.1616 0.252361)
(-1.83252e-15 10.7641 0.277231)
(-1.7036e-15 10.3466 0.304637)
(-1.61392e-15 9.90809 0.334836)
(-1.4858e-15 9.44721 0.36803)
(-1.38851e-15 8.963 0.404301)
(-1.2461e-15 8.4546 0.443626)
(-1.11845e-15 7.92154 0.485761)
(-1.00613e-15 7.36393 0.53018)
(-8.84119e-16 6.78272 0.576022)
(-7.70401e-16 6.18 0.622144)
(-6.58194e-16 5.55906 0.667288)
(-5.65968e-16 4.92425 0.710527)
(-4.67063e-16 4.28038 0.751713)
(-3.65315e-16 3.63177 0.791847)
(-2.68093e-16 2.98115 0.833254)
(-1.89266e-16 2.32906 0.879616)
(-1.3343e-16 1.67386 0.936417)
(-3.31922e-17 1.01239 1.01239)
(-2.80067e-17 0.34251 1.12213)
(5.82369e-15 16.3191 0.00373518)
(-8.80801e-16 16.2973 0.0110779)
(-8.57038e-15 16.2562 0.0182362)
(-5.73372e-15 16.1979 0.0253677)
(-5.69287e-15 16.1238 0.0325416)
(-5.1919e-15 16.0354 0.0397972)
(-4.99983e-15 15.9336 0.0472064)
(-3.90569e-15 15.8194 0.0548306)
(-3.79877e-15 15.6934 0.0627418)
(-3.30041e-15 15.5562 0.0709652)
(-2.81205e-15 15.4082 0.0795632)
(-2.56152e-15 15.2501 0.0886059)
(-2.07091e-15 15.0817 0.0981773)
(-1.82941e-15 14.9037 0.108297)
(-1.42832e-15 14.7161 0.119032)
(-1.198e-15 14.5188 0.130445)
(-1.21212e-15 14.3119 0.142705)
(-1.29205e-15 14.0953 0.155989)
(-1.18202e-15 13.8689 0.170332)
(-1.22816e-15 13.6321 0.186146)
(-1.20917e-15 13.3843 0.203797)
(-1.12588e-15 13.1243 0.223301)
(-1.1017e-15 12.8513 0.244656)
(-1.11411e-15 12.5652 0.267977)
(-1.09446e-15 12.2652 0.29373)
(-1.03976e-15 11.9502 0.32248)
(-9.99939e-16 11.6189 0.354403)
(-9.90303e-16 11.2701 0.389457)
(-9.88799e-16 10.9033 0.427824)
(-9.58011e-16 10.5177 0.469982)
(-9.22686e-16 10.1122 0.516449)
(-8.64999e-16 9.68581 0.567684)
(-8.27505e-16 9.23698 0.624016)
(-7.87002e-16 8.76465 0.685615)
(-6.93622e-16 8.26794 0.752477)
(-6.30656e-16 7.74606 0.824282)
(-5.43791e-16 7.19867 0.900201)
(-4.82455e-16 6.6263 0.978761)
(-4.28054e-16 6.03049 1.05795)
(-3.51896e-16 5.41433 1.13548)
(-2.89653e-16 4.78242 1.20938)
(-2.38638e-16 4.14062 1.27893)
(-1.87539e-16 3.49483 1.34549)
(-1.44313e-16 2.84971 1.4125)
(-1.24306e-16 2.20776 1.48513)
(-1.33501e-16 1.56978 1.56978)
(-6.82231e-17 0.936416 1.67386)
(-1.07832e-16 0.310877 1.80524)
(8.26477e-15 15.0146 0.00513074)
(7.90783e-15 14.9973 0.0152431)
(1.51277e-16 14.9642 0.0251386)
(2.47497e-17 14.917 0.0349753)
(-4.32568e-16 14.8572 0.0448501)
(-4.16143e-16 14.7857 0.0548856)
(-6.41675e-16 14.703 0.065146)
(-3.62855e-16 14.61 0.0757167)
(-3.46701e-16 14.507 0.0867211)
(-2.30165e-16 14.3943 0.098189)
(-5.97826e-17 14.2724 0.110185)
(4.74232e-17 14.1413 0.12285)
(2.32433e-16 14.0013 0.136205)
(3.18015e-16 13.8525 0.150319)
(3.40854e-16 13.6949 0.165408)
(3.47181e-16 13.5284 0.181529)
(3.81373e-16 13.3527 0.198788)
(3.22104e-16 13.1682 0.217383)
(1.95527e-16 12.9742 0.237637)
(1.77898e-16 12.7702 0.259914)
(8.95073e-17 12.556 0.284736)
(-3.2527e-17 12.3303 0.312377)
(4.21554e-17 12.092 0.342552)
(2.67061e-17 11.8414 0.375476)
(-4.2923e-17 11.5774 0.4119)
(-1.0952e-16 11.2992 0.452565)
(-1.18385e-16 11.005 0.497851)
(-6.66763e-17 10.6937 0.547566)
(-8.24335e-17 10.3648 0.60195)
(-1.58794e-16 10.0176 0.661825)
(-1.40402e-16 9.65069 0.727729)
(-1.13413e-16 9.26288 0.800509)
(-1.63917e-16 8.85273 0.880777)
(-1.50864e-16 8.41896 0.968603)
(-1.2785e-16 7.95987 1.06418)
(-1.48337e-16 7.47438 1.16726)
(-1.46918e-16 6.96117 1.2768)
(-1.42834e-16 6.41978 1.39089)
(-1.28516e-16 5.85029 1.50655)
(-1.2182e-16 5.25472 1.62004)
(-1.01284e-16 4.63745 1.72765)
(-8.31127e-17 4.00559 1.82727)
(-8.75393e-17 3.36774 1.91981)
(-8.70012e-17 2.73183 2.00963)
(-9.43822e-17 2.10329 2.10329)
(-1.38444e-16 1.48512 2.20776)
(-8.0079e-17 0.879615 2.32906)
(-1.8363e-16 0.290199 2.47137)
(7.31204e-15 12.811 0.00615688)
(9.99283e-15 12.7992 0.0183518)
(4.05006e-15 12.7767 0.0303207)
(2.53557e-15 12.7449 0.0421869)
(1.98255e-15 12.7042 0.0541242)
(1.74173e-15 12.6552 0.0662966)
(1.33352e-15 12.5986 0.0787931)
(1.14585e-15 12.5343 0.0916987)
(1.20194e-15 12.4628 0.105168)
(1.10563e-15 12.3841 0.119233)
(1.12344e-15 12.2984 0.134029)
(1.1848e-15 12.2055 0.149671)
(1.19105e-15 12.1058 0.166233)
(1.24608e-15 11.9987 0.183823)
(1.04288e-15 11.8843 0.20261)
(9.26157e-16 11.7627 0.222778)
(1.04241e-15 11.6335 0.244376)
(1.082e-15 11.4966 0.267759)
(8.53578e-16 11.3514 0.293321)
(8.67994e-16 11.1981 0.321337)
(7.64901e-16 11.036 0.35256)
(5.28688e-16 10.8642 0.387476)
(6.27356e-16 10.6821 0.425665)
(6.20901e-16 10.4895 0.467299)
(4.70399e-16 10.2855 0.513417)
(3.54833e-16 10.0695 0.565161)
(3.72183e-16 9.83949 0.622976)
(4.55787e-16 9.59466 0.686543)
(4.28789e-16 9.33428 0.756073)
(2.93944e-16 9.05782 0.832723)
(2.58405e-16 8.76401 0.917554)
(2.39093e-16 8.4509 1.01137)
(1.77485e-16 8.11724 1.11495)
(1.84136e-16 7.76154 1.22904)
(1.77724e-16 7.38151 1.35398)
(1.17939e-16 6.97492 1.48967)
(7.32257e-17 6.53912 1.63535)
(4.09093e-17 6.07144 1.78898)
(1.31072e-17 5.56907 1.947)
(-5.47019e-18 5.03069 2.10379)
(-2.15311e-17 4.45797 2.2527)
(-4.30687e-17 3.85758 2.38833)
(-5.37909e-17 3.24096 2.50967)
(-6.07585e-17 2.62134 2.62134)
(-8.95548e-17 2.00963 2.73183)
(-1.76939e-16 1.4125 2.84971)
(-1.12725e-16 0.833254 2.98115)
(-2.33551e-16 0.274195 3.12918)
(5.23168e-15 10.3664 0.00685466)
(8.80645e-15 10.3585 0.0204022)
(5.06215e-15 10.344 0.0336724)
(3.18133e-15 10.3231 0.0468881)
(2.69916e-15 10.2962 0.0602432)
(2.40247e-15 10.2636 0.0738536)
(2.00122e-15 10.2259 0.0878565)
(1.57225e-15 10.1828 0.102391)
(1.70243e-15 10.1344 0.117592)
(1.53949e-15 10.0809 0.133526)
(1.4353e-15 10.0219 0.150368)
(1.46891e-15 9.95773 0.168181)
(1.40806e-15 9.88801 0.187115)
(1.45474e-15 9.81279 0.207365)
(1.15014e-15 9.73156 0.228973)
(9.79418e-16 9.64459 0.252217)
(1.11555e-15 9.5516 0.277281)
(1.27273e-15 9.45205 0.304429)
(1.06529e-15 9.34622 0.333988)
(1.09513e-15 9.23372 0.366438)
(1.02504e-15 9.11477 0.402714)
(7.43297e-16 8.99016 0.443206)
(7.73367e-16 8.85975 0.487487)
(8.09857e-16 8.72183 0.535944)
(6.90853e-16 8.57587 0.589676)
(5.51044e-16 8.42132 0.650094)
(5.78426e-16 8.25685 0.717865)
(6.81813e-16 8.08139 0.792462)
(6.68724e-16 7.89519 0.874195)
(4.84558e-16 7.69719 0.964394)
(4.21762e-16 7.48685 1.06464)
(4.19272e-16 7.26243 1.17614)
(3.49985e-16 7.02284 1.29966)
(3.31983e-16 6.76636 1.43635)
(3.27083e-16 6.49112 1.58744)
(2.63991e-16 6.1943 1.75359)
(1.97979e-16 5.87191 1.93484)
(1.35657e-16 5.51886 2.13022)
(1.02312e-16 5.12891 2.33664)
(6.53892e-17 4.69426 2.54743)
(2.50998e-17 4.20937 2.75224)
(-2.87683e-18 3.67487 2.93939)
(-1.22702e-17 3.10164 3.10164)
(-3.47405e-17 2.50966 3.24097)
(-1.00111e-16 1.91981 3.36774)
(-2.38188e-16 1.34549 3.49483)
(-1.46149e-16 0.791847 3.63177)
(-3.00385e-16 0.260223 3.78262)
(3.36728e-15 8.31579 0.00736774)
(6.7877e-15 8.31004 0.0218814)
(4.72442e-15 8.29918 0.0361434)
(2.98023e-15 8.28345 0.0504137)
(2.6071e-15 8.26325 0.0648204)
(2.33743e-15 8.23871 0.0795217)
(2.0229e-15 8.20995 0.0947075)
(1.52298e-15 8.17685 0.110521)
(1.72447e-15 8.13954 0.127105)
(1.58123e-15 8.098 0.144593)
(1.34358e-15 8.05187 0.163047)
(1.36589e-15 8.0014 0.182668)
(1.27065e-15 7.94608 0.203614)
(1.31493e-15 7.88604 0.226035)
(1.04027e-15 7.82101 0.25009)
(8.20213e-16 7.75075 0.275926)
(9.44506e-16 7.67538 0.303863)
(1.19781e-15 7.59452 0.334137)
(1.03663e-15 7.50843 0.36715)
(1.05963e-15 7.41658 0.403205)
(1.03421e-15 7.32 0.442653)
(7.47552e-16 7.22075 0.486127)
(7.24369e-16 7.11868 0.534244)
(8.00479e-16 7.01187 0.587465)
(6.99533e-16 6.89994 0.646482)
(5.83411e-16 6.78325 0.712935)
(6.40058e-16 6.66214 0.787698)
(6.93928e-16 6.53598 0.869855)
(7.10285e-16 6.40416 0.95978)
(5.31233e-16 6.26603 1.0592)
(4.09966e-16 6.12082 1.16981)
(4.43254e-16 5.9684 1.293)
(4.24106e-16 5.80775 1.42991)
(3.82255e-16 5.63783 1.58223)
(3.72818e-16 5.45748 1.75152)
(3.30528e-16 5.26452 1.93988)
(2.62144e-16 5.05487 2.14922)
(1.91998e-16 4.82328 2.38056)
(1.63293e-16 4.56084 2.63422)
(1.05106e-16 4.25406 2.906)
(5.60899e-17 3.8866 3.18362)
(3.52618e-17 3.44706 3.44706)
(9.03841e-19 2.93939 3.67487)
(-3.75671e-17 2.38833 3.85758)
(-1.16989e-16 1.82727 4.00559)
(-2.81175e-16 1.27893 4.14063)
(-1.74015e-16 0.751713 4.28038)
(-4.1584e-16 0.246859 4.43234)
(2.03149e-15 6.74553 0.0077782)
(4.92341e-15 6.74089 0.0231507)
(3.86075e-15 6.73185 0.03826)
(2.41797e-15 6.7189 0.0533633)
(2.20311e-15 6.70229 0.0686754)
(1.96362e-15 6.68202 0.0843593)
(1.73679e-15 6.65784 0.10061)
(1.2734e-15 6.63012 0.117577)
(1.52032e-15 6.5985 0.135378)
(1.44345e-15 6.56321 0.154214)
(1.09552e-15 6.5239 0.174215)
(1.08954e-15 6.48044 0.195505)
(1.00828e-15 6.43283 0.218286)
(1.05586e-15 6.38082 0.242718)
(8.69721e-16 6.32443 0.268979)
(6.36132e-16 6.26339 0.297265)
(7.16315e-16 6.1976 0.32784)
(1.01234e-15 6.12728 0.360948)
(9.18365e-16 6.05232 0.397007)
(9.44429e-16 5.97308 0.436235)
(9.51758e-16 5.88957 0.478583)
(6.78519e-16 5.8029 0.524803)
(5.92845e-16 5.71332 0.576063)
(7.01243e-16 5.62043 0.632973)
(6.24675e-16 5.52484 0.695741)
(5.15346e-16 5.42739 0.765451)
(6.10585e-16 5.33003 0.843286)
(6.24583e-16 5.23384 0.929311)
(6.30008e-16 5.1365 1.02397)
(4.57767e-16 5.03729 1.12881)
(3.41007e-16 4.93584 1.24526)
(3.93791e-16 4.83227 1.37487)
(3.85439e-16 4.72585 1.51913)
(3.73705e-16 4.61668 1.67958)
(3.74407e-16 4.50453 1.85858)
(3.4264e-16 4.38779 2.05951)
(2.72475e-16 4.26388 2.28561)
(1.99351e-16 4.12746 2.54124)
(1.79305e-16 3.97067 2.83245)
(1.23757e-16 3.77782 3.16245)
(6.37731e-17 3.52312 3.52312)
(2.47847e-17 3.18362 3.8866)
(-1.56734e-17 2.75224 4.20937)
(-6.43642e-17 2.2527 4.45797)
(-1.49442e-16 1.72765 4.63745)
(-3.33723e-16 1.20938 4.78243)
(-2.03765e-16 0.710527 4.92425)
(-4.87366e-16 0.233271 5.07654)
(1.19807e-15 5.54135 0.00814761)
(3.50059e-15 5.53727 0.0242501)
(2.95091e-15 5.52946 0.040113)
(1.83917e-15 5.51814 0.0559901)
(1.7477e-15 5.50356 0.0720965)
(1.53578e-15 5.4856 0.088694)
(1.3798e-15 5.46425 0.105906)
(1.00744e-15 5.43965 0.123917)
(1.26541e-15 5.41154 0.142903)
(1.2106e-15 5.37981 0.16302)
(8.12572e-16 5.34448 0.184436)
(7.92456e-16 5.30541 0.207286)
(7.50071e-16 5.26238 0.231783)
(8.28239e-16 5.21538 0.258102)
(7.2356e-16 5.1643 0.286431)
(4.8267e-16 5.10937 0.316985)
(4.99125e-16 5.05023 0.349955)
(8.09287e-16 4.98736 0.385597)
(7.71712e-16 4.92086 0.424283)
(8.08108e-16 4.85097 0.466285)
(8.60132e-16 4.77781 0.511651)
(6.51961e-16 4.70183 0.560894)
(4.91512e-16 4.6235 0.615227)
(5.51979e-16 4.54305 0.674954)
(5.0672e-16 4.46234 0.740191)
(4.09769e-16 4.38219 0.811814)
(5.40842e-16 4.30411 0.890414)
(5.26735e-16 4.22908 0.977271)
(5.04867e-16 4.15602 1.07387)
(3.95539e-16 4.08374 1.18101)
(2.86208e-16 4.01273 1.29995)
(3.13497e-16 3.94307 1.43241)
(3.45218e-16 3.87579 1.57958)
(3.47018e-16 3.81056 1.7429)
(3.35404e-16 3.74658 1.9253)
(3.06825e-16 3.68235 2.13098)
(2.42482e-16 3.61555 2.36553)
(1.75998e-16 3.54 2.63556)
(1.62213e-16 3.44965 2.95268)
(1.12435e-16 3.33321 3.33321)
(6.05834e-17 3.16245 3.77782)
(3.28743e-17 2.906 4.25406)
(-1.68336e-18 2.54743 4.69426)
(-6.50229e-17 2.10378 5.0307)
(-1.73885e-16 1.62004 5.25472)
(-4.05839e-16 1.13548 5.41433)
(-2.32297e-16 0.667276 5.55906)
(-5.41321e-16 0.219083 5.71164)
(7.09241e-16 4.61288 0.0084965)
(2.49265e-15 4.60898 0.0253075)
(2.20935e-15 4.60174 0.0418771)
(1.37809e-15 4.59115 0.0584791)
(1.35868e-15 4.57745 0.0753981)
(1.16818e-15 4.56051 0.0928508)
(1.07314e-15 4.54056 0.110993)
(8.00154e-16 4.51727 0.130036)
(1.01005e-15 4.49076 0.15017)
(9.66195e-16 4.46078 0.171555)
(5.9558e-16 4.42735 0.194342)
(5.35839e-16 4.39014 0.218738)
(5.46158e-16 4.34947 0.244936)
(6.68407e-16 4.30511 0.273088)
(5.88493e-16 4.25719 0.303315)
(3.63291e-16 4.20592 0.335914)
(3.53442e-16 4.15141 0.371077)
(6.19672e-16 4.09377 0.408902)
(6.20456e-16 4.034 0.449884)
(6.93195e-16 3.97209 0.494247)
(7.89683e-16 3.90827 0.54184)
(6.07554e-16 3.84332 0.593252)
(3.86428e-16 3.77811 0.649725)
(4.27136e-16 3.71398 0.711147)
(3.87438e-16 3.65083 0.777335)
(3.46484e-16 3.58948 0.849366)
(4.53741e-16 3.53102 0.928208)
(4.30419e-16 3.47468 1.01525)
(4.04411e-16 3.4208 1.11218)
(3.37272e-16 3.3699 1.21975)
(2.70822e-16 3.32265 1.33861)
(2.70032e-16 3.28015 1.46983)
(2.98632e-16 3.24343 1.61517)
(3.04963e-16 3.21138 1.77748)
(3.00465e-16 3.18232 1.96019)
(2.72891e-16 3.15437 2.16818)
(1.86305e-16 3.12409 2.4093)
(1.32453e-16 3.08457 2.69228)
(1.29091e-16 3.0297 3.0297)
(9.07514e-17 2.95268 3.44966)
(5.58775e-17 2.83245 3.97067)
(5.92185e-17 2.63422 4.56084)
(3.01454e-17 2.33664 5.12891)
(-3.49078e-17 1.947 5.56907)
(-1.6362e-16 1.50655 5.8503)
(-4.71658e-16 1.05795 6.03051)
(-2.84619e-16 0.622144 6.18)
(-6.57952e-16 0.204308 6.33332)
(4.43221e-16 3.8907 0.00886591)
(1.79066e-15 3.88697 0.0263639)
(1.66288e-15 3.87994 0.0436423)
(1.05782e-15 3.86961 0.0610141)
(1.05558e-15 3.85609 0.0787231)
(8.84741e-16 3.83959 0.0970334)
(8.4199e-16 3.81989 0.116132)
(6.37543e-16 3.7971 0.136238)
(7.71487e-16 3.77102 0.157522)
(7.45871e-16 3.74153 0.180181)
(4.38848e-16 3.70873 0.204439)
(3.46093e-16 3.67252 0.230352)
(3.86563e-16 3.63301 0.258123)
(5.45488e-16 3.59051 0.288001)
(4.82104e-16 3.54481 0.320048)
(2.67535e-16 3.49675 0.354482)
(2.69271e-16 3.44655 0.391536)
(4.7762e-16 3.39441 0.431119)
(4.85804e-16 3.34152 0.473623)
(5.90054e-16 3.28881 0.519602)
(6.98799e-16 3.23638 0.568757)
(5.27189e-16 3.18405 0.621248)
(3.07153e-16 3.13278 0.677918)
(3.39583e-16 3.0844 0.739462)
(3.27869e-16 3.03761 0.806185)
(3.00015e-16 2.99251 0.878236)
(3.56666e-16 2.94957 0.956992)
(3.46806e-16 2.90896 1.04414)
(3.29597e-16 2.8713 1.14033)
(3.09972e-16 2.83864 1.24607)
(2.69458e-16 2.81191 1.3621)
(2.56465e-16 2.79147 1.48969)
(2.66576e-16 2.77659 1.63153)
(2.59719e-16 2.76597 1.79114)
(2.45066e-16 2.75814 1.97236)
(2.06605e-16 2.75108 2.18135)
(1.29353e-16 2.74219 2.42896)
(7.98352e-17 2.72558 2.72558)
(8.52641e-17 2.69228 3.08457)
(9.08238e-17 2.63556 3.54)
(7.8356e-17 2.54124 4.12746)
(7.22924e-17 2.38056 4.82328)
(5.79043e-17 2.13022 5.51886)
(3.16892e-18 1.78898 6.07144)
(-1.43725e-16 1.39089 6.41978)
(-5.22742e-16 0.978761 6.6263)
(-2.94904e-16 0.576032 6.78272)
(-7.78372e-16 0.189225 6.93745)
(2.90887e-16 3.32161 0.0092148)
(1.29877e-15 3.31795 0.0274428)
(1.27683e-15 3.31073 0.0454729)
(8.37686e-16 3.30035 0.0636419)
(8.24266e-16 3.28682 0.0821923)
(6.80728e-16 3.27013 0.101418)
(6.53929e-16 3.25038 0.121507)
(5.19601e-16 3.22739 0.142688)
(6.02808e-16 3.20114 0.16522)
(5.70539e-16 3.17172 0.189197)
(3.13384e-16 3.13915 0.214784)
(1.98136e-16 3.10373 0.2422)
(2.60719e-16 3.06524 0.271513)
(4.41089e-16 3.02491 0.302986)
(3.8617e-16 2.98202 0.336548)
(2.04814e-16 2.9382 0.372337)
(2.33487e-16 2.89435 0.410748)
(3.8752e-16 2.85057 0.451474)
(3.83016e-16 2.80679 0.494637)
(4.6326e-16 2.76443 0.540828)
(5.77638e-16 2.72381 0.590375)
(4.34045e-16 2.68399 0.643446)
(2.55128e-16 2.6452 0.700212)
(3.01204e-16 2.60805 0.761599)
(3.1117e-16 2.57303 0.828277)
(2.90485e-16 2.54005 0.900421)
(2.99786e-16 2.50908 0.978893)
(2.77883e-16 2.48107 1.06487)
(2.76474e-16 2.45801 1.15874)
(2.97642e-16 2.44096 1.2608)
(2.73754e-16 2.43033 1.37261)
(2.28592e-16 2.42501 1.49639)
(2.18389e-16 2.42387 1.63515)
(2.15036e-16 2.4258 1.79254)
(1.90351e-16 2.42947 1.97292)
(1.46655e-16 2.43274 2.18253)
(1.06874e-16 2.4335 2.4335)
(8.12525e-17 2.42896 2.74219)
(1.00222e-16 2.4093 3.12409)
(1.16474e-16 2.36553 3.61555)
(1.1484e-16 2.28561 4.26388)
(9.53169e-17 2.14922 5.05487)
(9.11072e-17 1.93483 5.87191)
(1.84704e-17 1.63535 6.53912)
(-1.5689e-16 1.2768 6.96117)
(-5.8745e-16 0.900201 7.19868)
(-3.12208e-16 0.53018 7.36393)
(-7.9496e-16 0.174213 7.52066)
(2.06926e-16 2.86625 0.00960474)
(9.89643e-16 2.86246 0.0286271)
(1.01225e-15 2.85506 0.0474577)
(6.66064e-16 2.84436 0.0664302)
(6.34222e-16 2.83056 0.0858795)
(5.4153e-16 2.81344 0.106054)
(5.09942e-16 2.79331 0.127201)
(4.33643e-16 2.76996 0.149579)
(4.74235e-16 2.7435 0.173291)
(4.42616e-16 2.71422 0.198546)
(2.28395e-16 2.68211 0.225508)
(9.26193e-17 2.64784 0.254308)
(1.57298e-16 2.61161 0.28483)
(3.46173e-16 2.5746 0.317497)
(2.99453e-16 2.53783 0.352176)
(1.68956e-16 2.50086 0.38844)
(2.17582e-16 2.46506 0.427018)
(3.21516e-16 2.43053 0.468196)
(2.92915e-16 2.39638 0.511764)
(3.55755e-16 2.36303 0.558034)
(4.49803e-16 2.33076 0.607735)
(3.3838e-16 2.29955 0.66109)
(2.44463e-16 2.2697 0.718184)
(2.99678e-16 2.2412 0.779484)
(3.13324e-16 2.21504 0.845625)
(2.85285e-16 2.19139 0.917016)
(2.57893e-16 2.17067 0.994371)
(2.29156e-16 2.15429 1.07792)
(2.41205e-16 2.14375 1.16799)
(2.74121e-16 2.13868 1.26594)
(2.60225e-16 2.1385 1.37397)
(1.93428e-16 2.14221 1.49457)
(1.81079e-16 2.14906 1.63062)
(1.75351e-16 2.15815 1.78604)
(1.47132e-16 2.16831 1.96586)
(1.26757e-16 2.17741 2.17741)
(1.04912e-16 2.18253 2.43274)
(7.19149e-17 2.18135 2.75108)
(7.84354e-17 2.16818 3.15437)
(8.87694e-17 2.13098 3.68235)
(8.72403e-17 2.05951 4.38779)
(9.09713e-17 1.93988 5.26452)
(6.47051e-17 1.75359 6.1943)
(-1.50994e-17 1.48967 6.97492)
(-2.27061e-16 1.16726 7.47438)
(-6.64621e-16 0.824282 7.74606)
(-3.08841e-16 0.485761 7.92154)
(-7.36988e-16 0.159641 8.08073)
(1.5495e-16 2.49611 0.0100152)
(8.06479e-16 2.49211 0.0298749)
(8.3338e-16 2.48449 0.0495752)
(5.11132e-16 2.47343 0.0694492)
(4.75033e-16 2.45911 0.0898552)
(4.57575e-16 2.44163 0.111068)
(4.16804e-16 2.4209 0.133287)
(3.66458e-16 2.39737 0.1568)
(3.84122e-16 2.37105 0.181738)
(3.4572e-16 2.3424 0.208224)
(1.64482e-16 2.31187 0.236291)
(3.53417e-17 2.28058 0.266082)
(7.67282e-17 2.24944 0.297454)
(2.49394e-16 2.2182 0.330295)
(2.20473e-16 2.18883 0.365084)
(1.54913e-16 2.15956 0.401782)
(2.05612e-16 2.13058 0.440518)
(2.83597e-16 2.10235 0.481892)
(2.26126e-16 2.07486 0.525913)
(2.58514e-16 2.04774 0.572644)
(3.26902e-16 2.02164 0.622571)
(2.76483e-16 1.99683 0.675831)
(2.65822e-16 1.97388 0.732575)
(3.01621e-16 1.95297 0.79329)
(2.8372e-16 1.93457 0.858465)
(2.62913e-16 1.91923 0.928525)
(2.45847e-16 1.90796 1.00341)
(2.22276e-16 1.90191 1.08337)
(2.26864e-16 1.90052 1.16987)
(2.44228e-16 1.90316 1.26457)
(2.24037e-16 1.90897 1.36959)
(1.60044e-16 1.91776 1.48739)
(1.28132e-16 1.9288 1.62108)
(1.2572e-16 1.94142 1.77482)
(1.13239e-16 1.95443 1.95443)
(1.04817e-16 1.96586 2.16831)
(8.42021e-17 1.97292 2.42947)
(4.8872e-17 1.97236 2.75815)
(6.6116e-17 1.96019 3.18232)
(7.6664e-17 1.9253 3.74658)
(7.72619e-17 1.85858 4.50453)
(1.04242e-16 1.75151 5.45748)
(3.56658e-17 1.58744 6.49112)
(-5.18443e-17 1.35398 7.38151)
(-2.61304e-16 1.06418 7.95988)
(-7.07445e-16 0.752477 8.26795)
(-2.70861e-16 0.443626 8.4546)
(-7.50486e-16 0.145808 8.61648)
(1.38821e-16 2.19043 0.0104872)
(7.11382e-16 2.18625 0.0312702)
(6.94691e-16 2.17825 0.051891)
(3.73369e-16 2.16688 0.0727216)
(3.53493e-16 2.15212 0.0941194)
(4.03253e-16 2.13426 0.11641)
(3.59363e-16 2.11346 0.139742)
(3.08341e-16 2.09016 0.16435)
(3.06724e-16 2.06472 0.190324)
(2.62636e-16 2.03828 0.217717)
(1.31962e-16 2.01191 0.246438)
(2.68687e-17 1.9857 0.276394)
(2.43347e-17 1.96075 0.307903)
(1.45962e-16 1.93589 0.340932)
(1.61747e-16 1.91132 0.375915)
(1.51961e-16 1.88701 0.413115)
(1.97809e-16 1.86279 0.452373)
(2.44663e-16 1.83892 0.49403)
(1.52207e-16 1.81594 0.538251)
(1.92237e-16 1.79401 0.585027)
(2.48377e-16 1.77351 0.634733)
(2.55775e-16 1.75477 0.687567)
(2.80718e-16 1.73808 0.743606)
(2.97686e-16 1.7237 0.803297)
(2.62287e-16 1.71225 0.866974)
(2.42412e-16 1.70478 0.934561)
(2.37334e-16 1.70212 1.00622)
(2.29118e-16 1.70322 1.08313)
(2.00842e-16 1.70744 1.16686)
(1.99673e-16 1.71442 1.25905)
(1.7486e-16 1.72355 1.36164)
(1.23946e-16 1.73491 1.47713)
(1.07605e-16 1.74771 1.60891)
(1.01303e-16 1.76148 1.76148)
(9.42931e-17 1.77482 1.94142)
(8.42845e-17 1.78604 2.15815)
(8.48784e-17 1.79254 2.4258)
(9.8557e-17 1.79114 2.76597)
(1.46142e-16 1.77747 3.21138)
(1.7463e-16 1.7429 3.81056)
(1.75059e-16 1.67958 4.61668)
(1.35163e-16 1.58223 5.63783)
(3.25324e-17 1.43635 6.76636)
(-6.546e-17 1.22904 7.76154)
(-2.8818e-16 0.968603 8.41896)
(-7.75129e-16 0.685615 8.76466)
(-2.89211e-16 0.404292 8.96301)
(-7.80275e-16 0.132901 9.12767)
(1.35566e-16 1.93413 0.0109798)
(6.34322e-16 1.9298 0.0327718)
(5.70489e-16 1.92156 0.0543825)
(2.67315e-16 1.90984 0.0762247)
(2.81237e-16 1.89489 0.0986966)
(3.56616e-16 1.87696 0.122026)
(3.22865e-16 1.85672 0.146353)
(2.48734e-16 1.83478 0.171898)
(2.36771e-16 1.81246 0.198531)
(2.11786e-16 1.79022 0.226085)
(1.14314e-16 1.76901 0.254882)
(2.8077e-17 1.74798 0.284994)
(-1.70928e-18 1.72696 0.316731)
(5.63949e-17 1.70586 0.350316)
(1.19358e-16 1.6845 0.385802)
(1.43275e-16 1.66356 0.4233)
(1.94217e-16 1.64304 0.462821)
(2.16773e-16 1.62337 0.504612)
(9.62677e-17 1.60479 0.548685)
(1.36317e-16 1.58783 0.595139)
(2.08581e-16 1.57231 0.644318)
(2.54663e-16 1.559 0.696352)
(2.78247e-16 1.54781 0.751386)
(2.86077e-16 1.53958 0.809618)
(2.49145e-16 1.53492 0.870908)
(2.22242e-16 1.53443 0.935393)
(2.35649e-16 1.53727 1.00438)
(2.32004e-16 1.54268 1.07918)
(1.79657e-16 1.55004 1.1608)
(1.58886e-16 1.55937 1.25102)
(1.37131e-16 1.57032 1.3516)
(1.11212e-16 1.58255 1.46526)
(1.03829e-16 1.59564 1.59564)
(9.40731e-17 1.60891 1.74771)
(1.04072e-16 1.62108 1.9288)
(1.06228e-16 1.63062 2.14906)
(1.29427e-16 1.63515 2.42387)
(1.66567e-16 1.63153 2.77659)
(2.08426e-16 1.61517 3.24343)
(2.34731e-16 1.57958 3.87579)
(2.3566e-16 1.51913 4.72585)
(1.62375e-16 1.42991 5.80775)
(8.5397e-17 1.29966 7.02284)
(-2.69143e-17 1.11495 8.11724)
(-2.91827e-16 0.880777 8.85273)
(-8.45401e-16 0.624016 9.23699)
(-3.74184e-16 0.368021 9.44722)
(-9.69294e-16 0.120976 9.61465)
(1.5293e-16 1.71617 0.0115339)
(5.67192e-16 1.7117 0.0343994)
(4.68788e-16 1.70349 0.0570732)
(2.00965e-16 1.69155 0.0799566)
(2.27425e-16 1.67693 0.103442)
(3.08125e-16 1.65977 0.127717)
(2.91939e-16 1.64154 0.152803)
(1.97243e-16 1.62281 0.178665)
(1.90046e-16 1.6049 0.205383)
(1.67268e-16 1.58707 0.233071)
(9.29602e-17 1.56918 0.262066)
(5.87774e-17 1.55105 0.292679)
(-1.95587e-17 1.5325 0.324974)
(-2.08702e-17 1.51403 0.358938)
(9.16626e-17 1.49564 0.39467)
(1.29243e-16 1.47798 0.43234)
(2.01737e-16 1.46112 0.47186)
(1.9736e-16 1.44532 0.51342)
(5.39296e-17 1.43106 0.557083)
(7.20929e-17 1.41843 0.603027)
(1.80886e-16 1.40765 0.651427)
(2.59638e-16 1.399 0.702393)
(2.73671e-16 1.39317 0.755855)
(2.74666e-16 1.39075 0.81174)
(2.3714e-16 1.39192 0.870405)
(1.99571e-16 1.39586 0.932709)
(2.2517e-16 1.40176 0.999823)
(2.29745e-16 1.40946 1.07285)
(1.989e-16 1.41871 1.15284)
(1.73587e-16 1.4291 1.24128)
(1.23315e-16 1.44071 1.34041)
(9.12083e-17 1.4529 1.4529)
(8.22041e-17 1.46526 1.58255)
(7.60639e-17 1.47713 1.73491)
(9.74048e-17 1.48739 1.91776)
(1.27708e-16 1.49457 2.14221)
(1.60553e-16 1.49639 2.42501)
(1.80683e-16 1.48969 2.79147)
(2.08414e-16 1.46983 3.28015)
(2.2557e-16 1.43241 3.94307)
(2.3165e-16 1.37487 4.83227)
(2.21896e-16 1.293 5.9684)
(1.45548e-16 1.17614 7.26243)
(-1.36658e-17 1.01137 8.4509)
(-2.98387e-16 0.800509 9.26288)
(-9.0132e-16 0.567684 9.68583)
(-5.00323e-16 0.334844 9.9081)
(-1.20116e-15 0.110061 10.0782)
(2.13346e-16 1.52838 0.0121085)
(5.4619e-16 1.52411 0.036069)
(4.13114e-16 1.51603 0.0598527)
(1.72639e-16 1.50476 0.0837559)
(1.75206e-16 1.49123 0.108113)
(2.61878e-16 1.47659 0.132973)
(2.53322e-16 1.46172 0.158301)
(1.54485e-16 1.44686 0.184277)
(1.65878e-16 1.43193 0.211171)
(1.21353e-16 1.41662 0.239309)
(7.3944e-17 1.40068 0.268843)
(9.41503e-17 1.38451 0.299865)
(-2.96121e-17 1.36833 0.332422)
(-8.47416e-17 1.35254 0.366659)
(6.33284e-17 1.33721 0.402515)
(1.2273e-16 1.32266 0.440033)
(1.96486e-16 1.30934 0.479373)
(1.76053e-16 1.29719 0.52054)
(2.05019e-17 1.28675 0.563583)
(2.20182e-17 1.27801 0.608687)
(1.60245e-16 1.27137 0.656064)
(2.61318e-16 1.26743 0.705473)
(2.71288e-16 1.26675 0.756749)
(2.65636e-16 1.26904 0.810355)
(2.24026e-16 1.27367 0.86707)
(1.92313e-16 1.27994 0.927796)
(2.15767e-16 1.28762 0.993455)
(2.1384e-16 1.29653 1.06497)
(1.88051e-16 1.30662 1.1436)
(1.49835e-16 1.31749 1.23087)
(8.93703e-17 1.32883 1.32883)
(6.02612e-17 1.34041 1.44071)
(4.82164e-17 1.3516 1.57032)
(4.75903e-17 1.36164 1.72355)
(6.9024e-17 1.36959 1.90897)
(1.32228e-16 1.37397 2.1385)
(1.68113e-16 1.37261 2.43033)
(1.8868e-16 1.3621 2.81192)
(2.1157e-16 1.33861 3.32265)
(2.62003e-16 1.29995 4.01273)
(2.88502e-16 1.24526 4.93584)
(2.80481e-16 1.16981 6.12083)
(1.77041e-16 1.06464 7.48685)
(-1.03857e-17 0.917554 8.76401)
(-3.48548e-16 0.727729 9.65069)
(-1.00034e-15 0.516449 10.1122)
(-6.61687e-16 0.304637 10.3467)
(-1.3389e-15 0.100131 10.5194)
(2.87726e-16 1.36579 0.0126627)
(5.50565e-16 1.36178 0.0377611)
(3.8039e-16 1.35449 0.0625629)
(1.69001e-16 1.34497 0.0873019)
(1.2914e-16 1.3338 0.112151)
(2.1521e-16 1.32249 0.13725)
(2.08249e-16 1.31037 0.162853)
(1.17222e-16 1.29788 0.189207)
(1.57565e-16 1.28451 0.216586)
(8.45103e-17 1.27076 0.245185)
(4.79622e-17 1.25664 0.275083)
(1.2881e-16 1.24267 0.306393)
(-2.88244e-17 1.22891 0.339145)
(-1.38449e-16 1.21567 0.373364)
(3.63243e-17 1.20324 0.409155)
(1.10162e-16 1.19178 0.446461)
(1.77243e-16 1.18158 0.485354)
(1.5187e-16 1.17286 0.52593)
(1.03769e-17 1.16577 0.568182)
(1.06906e-17 1.16069 0.612315)
(1.55115e-16 1.15811 0.658067)
(2.49433e-16 1.15873 0.705346)
(2.6214e-16 1.16189 0.754617)
(2.39279e-16 1.16692 0.806604)
(1.97126e-16 1.17336 0.862021)
(1.85651e-16 1.181 0.921525)
(2.01369e-16 1.1896 0.98592)
(1.77241e-16 1.19909 1.05621)
(1.47233e-16 1.20933 1.13366)
(1.10795e-16 1.22003 1.22003)
(4.99672e-17 1.23087 1.31749)
(9.83518e-18 1.24128 1.4291)
(1.12382e-17 1.25102 1.55937)
(4.46991e-17 1.25905 1.71442)
(9.00589e-17 1.26457 1.90316)
(1.60877e-16 1.26594 2.13868)
(2.08914e-16 1.2608 2.44096)
(2.40059e-16 1.24607 2.83864)
(2.83211e-16 1.21975 3.3699)
(3.35501e-16 1.18101 4.08374)
(3.59782e-16 1.12881 5.03729)
(3.31339e-16 1.0592 6.26603)
(2.55617e-16 0.964394 7.69719)
(6.21044e-17 0.832723 9.05783)
(-3.2659e-16 0.661825 10.0176)
(-1.06023e-15 0.469982 10.5177)
(-8.26556e-16 0.277231 10.7641)
(-1.67344e-15 0.0911152 10.9393)
(3.11974e-16 1.22564 0.0132168)
(5.52742e-16 1.22229 0.0392813)
(3.34878e-16 1.21646 0.0648317)
(1.74296e-16 1.20913 0.0901555)
(1.01132e-16 1.20052 0.115374)
(1.86995e-16 1.19101 0.140901)
(1.59513e-16 1.18043 0.167012)
(6.91774e-17 1.16913 0.193862)
(1.42934e-16 1.15713 0.221683)
(5.47859e-17 1.14505 0.250609)
(3.57383e-17 1.13289 0.280753)
(1.51376e-16 1.12102 0.312159)
(-2.57228e-17 1.10965 0.344935)
(-1.44247e-16 1.09898 0.379097)
(2.40541e-17 1.08923 0.41462)
(7.62929e-17 1.08068 0.451508)
(1.31693e-16 1.07335 0.489846)
(1.32369e-16 1.06771 0.529679)
(3.64536e-17 1.06384 0.570924)
(3.59216e-17 1.06238 0.613475)
(1.44426e-16 1.06383 0.657253)
(2.25394e-16 1.06749 0.702742)
(2.43138e-16 1.0728 0.750709)
(2.06888e-16 1.07917 0.801551)
(1.83755e-16 1.08661 0.85579)
(1.7999e-16 1.09491 0.914201)
(1.73937e-16 1.10399 0.977613)
(1.40864e-16 1.11364 1.0469)
(1.13282e-16 1.12358 1.12358)
(8.44346e-17 1.13366 1.20933)
(2.12958e-17 1.1436 1.30662)