/*--------------------------------*- C++ -*----------------------------------*\
| =========                 |                                                 |
| \\      /  F ield         | OpenFOAM: The Open Source CFD Toolbox           |
|  \\    /   O peration     | Version:  2212                                  |
|   \\  /    A nd           | Website:  www.openfoam.com                      |
|    \\/     M anipulation  |                                                 |
\*---------------------------------------------------------------------------*/
FoamFile
{
    version     2.0;
    format      ascii;
    arch        "LSB;label=32;scalar=64";
    class       volScalarField;
    location    "43892";
    object      i2;
}
// * * * * * * * * * * * * * * * * * * * * * * * * * * * * * * * * * * * * * //

dimensions      [0 0 0 0 0 0 0];

internalField   nonuniform List<scalar> 
400
(
-1.26651e-08
-4.65629e-07
-3.98656e-06
-1.77091e-05
-5.45409e-05
-0.000133833
-0.000281784
-0.000531515
-0.000922573
-0.00149959
-0.00230982
-0.00339934
-0.00480799
-0.00656342
-0.00867501
-0.011129
-0.0138862
-0.0168829
-0.020036
-0.0232516
-0.0264348
-0.0294988
-0.0323732
-0.0350071
-0.0373707
-0.0394527
-0.0412569
-0.0427981
-0.044098
-0.0451817
-0.0460759
-0.0468056
-0.0473911
-0.0478984
-0.04805
-0.04805
-0.04805
-0.04805
-0.04805
-0.04805
-0.04805
-0.04805
-0.04805
-0.04805
-0.04805
-0.04805
-0.04805
-0.04805
-0.04805
-0.04805
-0.04805
-0.04805
-0.04805
-0.04805
-0.04805
-0.04805
-0.04805
-0.04805
-0.04805
-0.04805
-0.04805
-0.04805
-0.04805
-0.04805
-0.04805
-0.04805
-0.04805
-0.04805
-0.04805
-0.04805
-0.04805
-0.04805
-0.04805
-0.04805
-0.04805
-0.04805
-0.04805
-0.048033
-0.0480116
-0.0479958
-0.0479798
-0.0479646
-0.0479499
-0.0479356
-0.0479218
-0.0479084
-0.0478955
-0.0478831
-0.0478711
-0.0478597
-0.0478487
-0.0478383
-0.0478284
-0.047819
-0.04781
-0.0478016
-0.0477937
-0.0477863
-0.0477794
-0.0477729
-0.047767
-0.0477615
-0.0477565
-0.047752
-0.0477479
-0.0477442
-0.047741
-0.0477383
-0.0477359
-0.047734
-0.0477325
-0.0477314
-0.0477307
-0.0477304
-0.0477304
-0.0477308
-0.0477316
-0.0477328
-0.0477342
-0.0477361
-0.0477382
-0.0477407
-0.0477435
-0.0477466
-0.0477499
-0.0477536
-0.0477576
-0.0477618
-0.0477662
-0.0477709
-0.0477759
-0.0477811
-0.0477865
-0.0477921
-0.0477979
-0.0478039
-0.0478101
-0.0478165
-0.047823
-0.0478297
-0.0478365
-0.0478434
-0.0478505
-0.0478577
-0.0478649
-0.0478723
-0.0478797
-0.0478872
-0.0478947
-0.0479023
-0.0479098
-0.0479174
-0.047925
-0.0479325
-0.04794
-0.0479474
-0.0479548
-0.0479621
-0.0479692
-0.0479763
-0.0479831
-0.0479899
-0.0479964
-0.0480028
-0.0480089
-0.0480147
-0.0480203
-0.0480255
-0.0480306
-0.0480355
-0.0480395
-0.0480497
-0.04805
-0.04805
-0.04805
-0.04805
-0.04805
-0.04805
-0.04805
-0.04805
-0.04805
-0.04805
-0.04805
-0.04805
-0.04805
-0.04805
-0.04805
-0.04805
-0.04805
-0.04805
-0.04805
-0.04805
-0.04805
-0.04805
-0.04805
-0.04805
-0.04805
-0.04805
-0.04805
-0.0480457
-0.0480092
-0.0479939
-0.0479755
-0.0479562
-0.047936
-0.0479141
-0.0478907
-0.0478656
-0.0478389
-0.0478106
-0.0477806
-0.0477488
-0.0477153
-0.04768
-0.0476429
-0.0476039
-0.0475631
-0.0475203
-0.0474755
-0.0474287
-0.0473799
-0.047329
-0.047276
-0.0472209
-0.0471635
-0.0471039
-0.047042
-0.0469778
-0.0469112
-0.0468423
-0.0467709
-0.046697
-0.0466205
-0.0465415
-0.0464599
-0.0463755
-0.0462885
-0.0461988
-0.0461062
-0.0460108
-0.0459124
-0.0458112
-0.0457069
-0.0455996
-0.0454893
-0.0453758
-0.0452591
-0.0451392
-0.0450161
-0.0448896
-0.0447598
-0.0446265
-0.0444898
-0.0443496
-0.0442058
-0.0440584
-0.0439074
-0.0437527
-0.0435943
-0.043432
-0.043266
-0.0430961
-0.0429222
-0.0427444
-0.0425626
-0.0423768
-0.0421869
-0.0419929
-0.0417947
-0.0415923
-0.0413856
-0.0411747
-0.0409595
-0.04074
-0.0405161
-0.0402877
-0.040055
-0.0398178
-0.0395761
-0.0393299
-0.0390792
-0.0388239
-0.0385641
-0.0382997
-0.0380306
-0.037757
-0.0374788
-0.0371959
-0.0369084
-0.0366163
-0.0363195
-0.0360181
-0.0357121
-0.0354015
-0.0350863
-0.0347666
-0.0344422
-0.0341133
-0.0337799
-0.0334421
-0.0330998
-0.032753
-0.0324019
-0.0320465
-0.0316868
-0.0313229
-0.0309548
-0.0305827
-0.0302065
-0.0298263
-0.0294422
-0.0290543
-0.0286627
-0.0282674
-0.0278686
-0.0274664
-0.0270608
-0.026652
-0.02624
-0.025825
-0.0254072
-0.0249866
-0.0245633
-0.0241376
-0.0237095
-0.0232792
-0.0228469
-0.0224127
-0.0219767
-0.0215392
-0.0211003
-0.0206602
-0.020219
-0.019777
-0.0193344
-0.0188913
-0.0184479
-0.0180044
-0.0175611
-0.0171181
-0.0166757
-0.0162341
-0.0157936
-0.0153542
-0.0149163
-0.0144802
-0.0140459
-0.0136138
-0.0131842
-0.0127572
-0.0123331
-0.0119121
-0.0114946
-0.0110807
-0.0106707
-0.0102648
-0.00986335
-0.00946654
-0.00907464
-0.0086879
-0.00830657
-0.00793091
-0.00756116
-0.00719757
-0.00684039
-0.00648986
-0.00614623
-0.00580974
-0.00548062
-0.00515911
-0.00484544
-0.00453984
-0.00424253
-0.00395372
-0.00367363
-0.00340248
-0.00314046
-0.00288776
-0.00264459
-0.00241113
-0.00218755
-0.00197403
-0.00177074
-0.00157783
-0.00139546
-0.00122376
-0.00106287
-0.000912929
-0.000774043
-0.000646327
-0.000529883
-0.000424804
-0.000331175
-0.000249071
-0.000178559
-0.000119697
-7.25319e-05
-3.70976e-05
-1.34229e-05
-1.50059e-06
)
;

boundaryField
{
    topWall
    {
        type            symmetry;
    }
    bottomWall
    {
        type            calculated;
        value           uniform -1.26699e-08;
    }
    inlet
    {
        type            cyclic;
    }
    outlet
    {
        type            cyclic;
    }
    frontAndBack
    {
        type            empty;
    }
}


// ************************************************************************* //
