/*--------------------------------*- C++ -*----------------------------------*\
| =========                 |                                                 |
| \\      /  F ield         | OpenFOAM: The Open Source CFD Toolbox           |
|  \\    /   O peration     | Version:  2212                                  |
|   \\  /    A nd           | Website:  www.openfoam.com                      |
|    \\/     M anipulation  |                                                 |
\*---------------------------------------------------------------------------*/
FoamFile
{
    version     2.0;
    format      ascii;
    arch        "LSB;label=32;scalar=64";
    class       volScalarField;
    location    "43892";
    object      omega;
}
// * * * * * * * * * * * * * * * * * * * * * * * * * * * * * * * * * * * * * //

dimensions      [0 0 -1 0 0 0 0];

internalField   nonuniform List<scalar> 
400
(
3.70302e+06
610482
208557
98912.4
56338.4
35948.6
24760.8
18016.1
13661.6
10701.1
8605.68
7074.19
5925.22
5044.28
4356.23
3810.1
3370.33
3011.5
2715.06
2467.26
2257.76
2078.71
1924.08
1789.23
1670.55
1565.24
1471.07
1386.3
1309.55
1239.69
1175.82
1117.19
1063.19
1013.3
967.067
924.057
883.924
846.385
811.195
778.147
747.056
717.762
690.121
664.009
639.311
615.925
593.76
572.732
552.764
533.788
515.74
498.561
482.197
466.598
451.719
437.516
423.95
410.986
398.587
386.724
375.365
364.484
354.054
344.052
334.456
325.243
316.395
307.893
299.719
291.858
284.295
277.014
270.003
263.249
256.74
250.465
244.413
238.571
232.929
227.476
222.204
217.104
212.17
207.394
202.77
198.289
193.948
189.739
185.657
181.698
177.856
174.126
170.504
166.986
163.568
160.246
157.016
153.875
150.82
147.848
144.954
142.138
139.395
136.724
134.121
131.585
129.112
126.702
124.352
122.06
119.823
117.641
115.511
113.432
111.401
109.419
107.482
105.59
103.741
101.935
100.168
98.4416
96.753
95.1017
93.4863
91.9059
90.3595
88.8462
87.3649
85.9147
84.4949
83.1045
81.7427
80.4088
79.102
77.8216
76.5668
75.3371
74.1316
72.9499
71.7912
70.655
69.5407
68.4477
67.3755
66.3237
65.2916
64.2787
63.2847
62.309
61.3512
60.4109
59.4877
58.581
57.6907
56.8161
55.9571
55.1132
54.2841
53.4694
52.6688
51.882
51.1087
50.3486
49.6013
48.8666
48.1443
47.4339
46.7354
46.0484
45.3726
44.7079
44.0539
43.4102
42.7764
42.1523
41.5377
40.9322
40.3356
39.7478
39.1684
38.5975
38.0346
37.4797
36.9326
36.3931
35.8611
35.3365
34.8192
34.3091
33.8061
33.3102
32.8214
32.3396
31.8649
31.3974
30.9369
30.4836
30.0372
29.5975
29.1852
28.8003
28.4241
28.0562
27.6964
27.3444
26.9999
26.6627
26.3325
26.0091
25.6923
25.3819
25.0777
24.7795
24.4871
24.2003
23.919
23.643
23.3722
23.1064
22.8454
22.5892
22.3375
22.0904
21.8476
21.609
21.3746
21.1441
20.9176
20.6949
20.4759
20.2606
20.0487
19.8403
19.6353
19.4336
19.235
19.0396
18.8472
18.6579
18.4714
18.2878
18.107
17.9289
17.7535
17.5808
17.4105
17.2428
17.0776
16.9147
16.7542
16.596
16.4401
16.2864
16.1348
15.9854
15.8381
15.6929
15.5497
15.4084
15.2692
15.1318
14.9963
14.8627
14.7308
14.6008
14.4725
14.346
14.2211
14.0979
13.9764
13.8565
13.7382
13.6214
13.5062
13.3926
13.2804
13.1697
13.0605
12.9527
12.8464
12.7414
12.6378
12.5356
12.4348
12.3353
12.237
12.1401
12.0445
11.9501
11.857
11.7651
11.6744
11.5849
11.4967
11.4096
11.3236
11.2389
11.1552
11.0727
10.9913
10.9111
10.8319
10.7538
10.6767
10.6008
10.5258
10.452
10.3791
10.3073
10.2365
10.1667
10.0979
10.0301
9.96321
9.89734
9.83244
9.76848
9.70548
9.64341
9.58228
9.52207
9.46278
9.4044
9.34693
9.29035
9.23467
9.17987
9.12595
9.07291
9.02073
8.96942
8.91896
8.86936
8.8206
8.77268
8.7256
8.67935
8.63392
8.58931
8.54553
8.50255
8.46038
8.41902
8.37845
8.33868
8.2997
8.26151
8.2241
8.18747
8.15161
8.11653
8.08222
8.04867
8.01588
7.98386
7.95258
7.92207
7.8923
7.86328
7.835
7.80746
7.78066
7.7546
7.72927
7.70468
7.68081
7.65766
7.63525
7.61355
7.59258
7.57232
7.55278
7.53395
7.51583
7.49843
7.48173
7.46574
7.45046
7.43588
7.42201
7.40884
7.39637
7.38459
7.37352
7.36314
7.35346
7.34447
7.33618
7.32858
7.32168
7.31547
7.30995
7.30512
7.30098
7.29753
7.29477
7.2927
7.29132
7.29063
)
;

boundaryField
{
    topWall
    {
        type            symmetry;
    }
    bottomWall
    {
        type            omegaWallFunction;
        blending        binomial;
        n               2;
        value           uniform 3.70302e+06;
    }
    inlet
    {
        type            cyclic;
    }
    outlet
    {
        type            cyclic;
    }
    frontAndBack
    {
        type            empty;
    }
}


// ************************************************************************* //
