/*--------------------------------*- C++ -*----------------------------------*\
| =========                 |                                                 |
| \\      /  F ield         | OpenFOAM: The Open Source CFD Toolbox           |
|  \\    /   O peration     | Version:  2212                                  |
|   \\  /    A nd           | Website:  www.openfoam.com                      |
|    \\/     M anipulation  |                                                 |
\*---------------------------------------------------------------------------*/
FoamFile
{
    version     2.0;
    format      ascii;
    arch        "LSB;label=32;scalar=64";
    class       volScalarField;
    location    "43892";
    object      p;
}
// * * * * * * * * * * * * * * * * * * * * * * * * * * * * * * * * * * * * * //

dimensions      [0 2 -2 0 0 0 0];

internalField   nonuniform List<scalar> 
400
(
1.06494e-09
5.77595e-09
6.05294e-09
4.87641e-09
1.33591e-08
7.81137e-08
3.58711e-07
1.33485e-06
4.34906e-06
1.29387e-05
3.58062e-05
9.27324e-05
0.000224957
0.000510963
0.00108662
0.00216511
0.00404822
0.00711855
0.0118054
0.0185251
0.0276083
0.039233
0.0533849
0.0698546
0.0882701
0.108154
0.128985
0.150256
0.171509
0.192366
0.212556
0.231953
0.250444
0.266952
0.280001
0.290191
0.299372
0.30837
0.317181
0.325721
0.333968
0.341928
0.349608
0.357011
0.364142
0.371006
0.37761
0.38396
0.390064
0.395927
0.401554
0.406955
0.412137
0.417111
0.421882
0.42646
0.430851
0.435062
0.439101
0.442974
0.446688
0.450251
0.453668
0.456947
0.460093
0.463113
0.466014
0.468801
0.471481
0.474061
0.476544
0.478938
0.481245
0.483471
0.48562
0.487648
0.489374
0.490632
0.491564
0.492419
0.493257
0.494051
0.494793
0.495484
0.496125
0.49672
0.49727
0.497779
0.498247
0.498677
0.49907
0.499427
0.499751
0.500041
0.5003
0.500529
0.500729
0.5009
0.501043
0.50116
0.501252
0.501318
0.50136
0.501378
0.501373
0.501346
0.501296
0.501225
0.501133
0.50102
0.500887
0.500734
0.500561
0.500369
0.500157
0.499927
0.499679
0.499411
0.499126
0.498822
0.498501
0.498161
0.497804
0.497429
0.497037
0.496626
0.496199
0.495754
0.495291
0.494811
0.494314
0.493799
0.493266
0.492716
0.492147
0.491562
0.490958
0.490336
0.489696
0.489038
0.488361
0.487666
0.486952
0.48622
0.485468
0.484697
0.483907
0.483097
0.482267
0.481417
0.480546
0.479655
0.478743
0.47781
0.476856
0.475879
0.474881
0.47386
0.472817
0.47175
0.47066
0.469547
0.468409
0.467246
0.466059
0.464846
0.463607
0.462342
0.46105
0.459739
0.458433
0.457076
0.455537
0.453821
0.452021
0.450173
0.448289
0.446376
0.44444
0.442484
0.440515
0.438533
0.436543
0.434548
0.432553
0.430565
0.428591
0.426641
0.424724
0.422855
0.421046
0.419311
0.417663
0.41611
0.414652
0.413278
0.41197
0.410676
0.40924
0.407336
0.405035
0.402765
0.400579
0.398395
0.396194
0.393974
0.391735
0.389477
0.387201
0.384907
0.382595
0.380265
0.377917
0.375551
0.373166
0.370764
0.368343
0.365904
0.363447
0.360973
0.35848
0.355969
0.35344
0.350893
0.348329
0.345746
0.343146
0.340528
0.337893
0.335239
0.332568
0.32988
0.327174
0.324451
0.321711
0.318954
0.31618
0.313389
0.310581
0.307757
0.304916
0.30206
0.299187
0.296298
0.293394
0.290474
0.287539
0.284589
0.281625
0.278646
0.275653
0.272646
0.269626
0.266592
0.263546
0.260487
0.257416
0.254333
0.251239
0.248133
0.245018
0.241892
0.238757
0.235613
0.23246
0.229299
0.226131
0.222956
0.219774
0.216587
0.213394
0.210197
0.206996
0.203792
0.200585
0.197377
0.194167
0.190957
0.187748
0.184539
0.181333
0.178129
0.174929
0.171733
0.168543
0.165359
0.162181
0.159012
0.155852
0.152701
0.149561
0.146433
0.143317
0.140215
0.137127
0.134055
0.130999
0.127961
0.124942
0.121942
0.118962
0.116004
0.113069
0.110157
0.10727
0.104408
0.101573
0.0987653
0.0959864
0.093237
0.0905181
0.0878307
0.0851758
0.0825541
0.0799667
0.0774145
0.0748983
0.072419
0.0699773
0.0675742
0.0652104
0.0628866
0.0606036
0.058362
0.0561625
0.0540057
0.0518922
0.0498226
0.0477974
0.045817
0.0438819
0.0419924
0.0401489
0.0383518
0.0366012
0.0348973
0.0332404
0.0316305
0.0300677
0.028552
0.0270834
0.0256617
0.0242869
0.0229587
0.0216769
0.0204412
0.0192513
0.0181068
0.0170071
0.0159519
0.0149406
0.0139726
0.0130473
0.0121639
0.0113218
0.0105202
0.00975819
0.00903506
0.00834986
0.00770168
0.00708957
0.00651252
0.00596953
0.00545955
0.00498153
0.00453436
0.00411694
0.00372815
0.00336686
0.00303191
0.00272217
0.00243646
0.00217363
0.00193253
0.001712
0.00151092
0.00132814
0.00116256
0.00101308
0.000878623
0.000758142
0.000650614
0.000555048
0.000470484
0.000396002
0.000330716
0.000273785
0.000224412
0.000181843
0.000145377
0.000114362
8.81969e-05
6.63378e-05
4.8296e-05
3.36397e-05
2.19958e-05
1.30574e-05
6.59717e-06
2.42491e-06
1.41008e-07
)
;

boundaryField
{
    topWall
    {
        type            symmetry;
    }
    bottomWall
    {
        type            zeroGradient;
    }
    inlet
    {
        type            cyclic;
    }
    outlet
    {
        type            cyclic;
    }
    frontAndBack
    {
        type            empty;
    }
}


// ************************************************************************* //
