/*--------------------------------*- C++ -*----------------------------------*\
| =========                 |                                                 |
| \\      /  F ield         | OpenFOAM: The Open Source CFD Toolbox           |
|  \\    /   O peration     | Version:  2212                                  |
|   \\  /    A nd           | Website:  www.openfoam.com                      |
|    \\/     M anipulation  |                                                 |
\*---------------------------------------------------------------------------*/
FoamFile
{
    version     2.0;
    format      ascii;
    arch        "LSB;label=32;scalar=64";
    class       surfaceScalarField;
    location    "43892";
    object      phi;
}
// * * * * * * * * * * * * * * * * * * * * * * * * * * * * * * * * * * * * * //

dimensions      [0 3 -1 0 0 0 0];

oriented        oriented;

internalField   nonuniform List<scalar> 
399
(
-1.20699e-13
-1.20734e-13
-1.20779e-13
-1.20832e-13
-1.20893e-13
-1.20961e-13
-1.21034e-13
-1.21109e-13
-1.21184e-13
-1.21254e-13
-1.21316e-13
-1.21364e-13
-1.21391e-13
-1.21391e-13
-1.21354e-13
-1.2127e-13
-1.21131e-13
-1.20925e-13
-1.20642e-13
-1.20272e-13
-1.19807e-13
-1.1924e-13
-1.18567e-13
-1.17786e-13
-1.16898e-13
-1.15904e-13
-1.14812e-13
-1.13627e-13
-1.12359e-13
-1.11018e-13
-1.09614e-13
-1.08157e-13
-1.06659e-13
-1.05127e-13
-1.03567e-13
-1.01985e-13
-1.00385e-13
-9.87716e-14
-9.71483e-14
-9.55185e-14
-9.38854e-14
-9.22517e-14
-9.06201e-14
-8.89932e-14
-8.7373e-14
-8.57618e-14
-8.41614e-14
-8.25735e-14
-8.09996e-14
-7.9441e-14
-7.78989e-14
-7.63742e-14
-7.48676e-14
-7.33796e-14
-7.19107e-14
-7.0461e-14
-6.90307e-14
-6.76195e-14
-6.62272e-14
-6.48536e-14
-6.34981e-14
-6.21603e-14
-6.08397e-14
-5.95358e-14
-5.82483e-14
-5.69771e-14
-5.57223e-14
-5.44848e-14
-5.32657e-14
-5.20674e-14
-5.08933e-14
-4.97484e-14
-4.86397e-14
-4.75759e-14
-4.65685e-14
-4.5626e-14
-4.47551e-14
-4.39564e-14
-4.32263e-14
-4.25591e-14
-4.19487e-14
-4.13886e-14
-4.08733e-14
-4.03973e-14
-3.99559e-14
-3.95447e-14
-3.91601e-14
-3.87985e-14
-3.84572e-14
-3.81334e-14
-3.78248e-14
-3.75293e-14
-3.72452e-14
-3.69707e-14
-3.67045e-14
-3.64452e-14
-3.61918e-14
-3.59432e-14
-3.56986e-14
-3.54572e-14
-3.52184e-14
-3.49814e-14
-3.47459e-14
-3.45113e-14
-3.42774e-14
-3.40437e-14
-3.38101e-14
-3.35763e-14
-3.33421e-14
-3.31073e-14
-3.2872e-14
-3.26359e-14
-3.23991e-14
-3.21616e-14
-3.19232e-14
-3.16841e-14
-3.14442e-14
-3.12036e-14
-3.09623e-14
-3.07204e-14
-3.0478e-14
-3.02351e-14
-2.99918e-14
-2.9748e-14
-2.95041e-14
-2.92598e-14
-2.90155e-14
-2.8771e-14
-2.85265e-14
-2.82819e-14
-2.80374e-14
-2.77929e-14
-2.75486e-14
-2.73041e-14
-2.70599e-14
-2.68157e-14
-2.65714e-14
-2.63271e-14
-2.60826e-14
-2.58378e-14
-2.55927e-14
-2.5347e-14
-2.51008e-14
-2.48537e-14
-2.46058e-14
-2.43566e-14
-2.41064e-14
-2.38548e-14
-2.36019e-14
-2.33477e-14
-2.30925e-14
-2.28365e-14
-2.25807e-14
-2.23258e-14
-2.20736e-14
-2.18259e-14
-2.15861e-14
-2.13579e-14
-2.1147e-14
-2.09601e-14
-2.08066e-14
-2.06975e-14
-2.06463e-14
-2.06689e-14
-2.07821e-14
-2.10028e-14
-2.1343e-14
-2.17957e-14
-2.23178e-14
-2.28335e-14
-2.31624e-14
-2.31665e-14
-2.27148e-14
-2.18046e-14
-2.05382e-14
-1.90638e-14
-1.75343e-14
-1.60698e-14
-1.4759e-14
-1.36456e-14
-1.2734e-14
-1.19958e-14
-1.13534e-14
-1.07154e-14
-9.92092e-15
-8.81878e-15
-7.16034e-15
-4.74191e-15
-1.24377e-15
3.55544e-15
9.96476e-15
1.812e-14
2.81082e-14
3.97113e-14
5.22528e-14
6.47008e-14
7.49295e-14
8.12581e-14
8.30202e-14
8.08795e-14
7.64741e-14
7.11778e-14
6.57916e-14
6.07585e-14
5.62609e-14
5.2344e-14
4.89873e-14
4.61443e-14
4.37573e-14
4.17701e-14
4.01257e-14
3.87747e-14
3.76675e-14
3.67649e-14
3.6026e-14
3.54222e-14
3.49215e-14
3.45044e-14
3.41473e-14
3.38385e-14
3.35607e-14
3.33079e-14
3.30678e-14
3.28384e-14
3.26106e-14
3.23852e-14
3.21553e-14
3.19233e-14
3.16835e-14
3.14395e-14
3.11863e-14
3.09279e-14
3.06599e-14
3.03867e-14
3.01038e-14
2.98157e-14
2.95183e-14
2.9216e-14
2.89047e-14
2.85887e-14
2.8264e-14
2.79349e-14
2.75973e-14
2.72556e-14
2.69056e-14
2.65516e-14
2.61895e-14
2.58235e-14
2.54496e-14
2.50718e-14
2.46863e-14
2.4297e-14
2.39e-14
2.34993e-14
2.30911e-14
2.26792e-14
2.22601e-14
2.18373e-14
2.14076e-14
2.09743e-14
2.05342e-14
2.00907e-14
1.96408e-14
1.91876e-14
1.87283e-14
1.82661e-14
1.77981e-14
1.73274e-14
1.68514e-14
1.6373e-14
1.58896e-14
1.54042e-14
1.49144e-14
1.44229e-14
1.39275e-14
1.3431e-14
1.29312e-14
1.24307e-14
1.19276e-14
1.14242e-14
1.0919e-14
1.04139e-14
9.90778e-15
9.40252e-15
8.89684e-15
8.39261e-15
7.88886e-15
7.38717e-15
6.8868e-15
6.38925e-15
5.89387e-15
5.40195e-15
4.91309e-15
4.4284e-15
3.94761e-15
3.47176e-15
3.00071e-15
2.53529e-15
2.07565e-15
1.62235e-15
1.1757e-15
7.3618e-16
3.04129e-16
-1.20169e-16
-5.35997e-16
-9.43419e-16
-1.34156e-15
-1.73057e-15
-2.10969e-15
-2.47904e-15
-2.8377e-15
-3.18593e-15
-3.52283e-15
-3.8489e-15
-4.16296e-15
-4.46571e-15
-4.75593e-15
-5.03431e-15
-5.29975e-15
-5.55311e-15
-5.79303e-15
-6.02054e-15
-6.23436e-15
-6.4357e-15
-6.62314e-15
-6.79784e-15
-6.95858e-15
-7.10658e-15
-7.24062e-15
-7.36204e-15
-7.46956e-15
-7.56458e-15
-7.64591e-15
-7.71496e-15
-7.77062e-15
-7.81439e-15
-7.84521e-15
-7.86448e-15
-7.87128e-15
-7.867e-15
-7.8508e-15
-7.82413e-15
-7.78626e-15
-7.73861e-15
-7.68034e-15
-7.61301e-15
-7.53593e-15
-7.45053e-15
-7.35622e-15
-7.25434e-15
-7.14444e-15
-7.02776e-15
-6.90399e-15
-6.77435e-15
-6.63851e-15
-6.49775e-15
-6.35181e-15
-6.20171e-15
-6.04733e-15
-5.88968e-15
-5.72858e-15
-5.565e-15
-5.39902e-15
-5.23127e-15
-5.06171e-15
-4.89133e-15
-4.72004e-15
-4.54851e-15
-4.3768e-15
-4.20536e-15
-4.03439e-15
-3.86429e-15
-3.695e-15
-3.52717e-15
-3.36076e-15
-3.19601e-15
-3.03308e-15
-2.87202e-15
-2.71299e-15
-2.55584e-15
-2.40117e-15
-2.24878e-15
-2.09865e-15
-1.95084e-15
-1.80543e-15
-1.66227e-15
-1.52145e-15
-1.3829e-15
-1.24664e-15
-1.11262e-15
-9.80762e-16
-8.51082e-16
-7.23398e-16
-5.97979e-16
-4.74947e-16
-3.54481e-16
-2.2571e-16
-8.75156e-17
-1.20161e-18
)
;

boundaryField
{
    topWall
    {
        type            symmetry;
        value           uniform 0;
    }
    bottomWall
    {
        type            calculated;
        value           uniform 0;
    }
    inlet
    {
        type            cyclic;
        value           nonuniform List<scalar> 
400
(
-4.32296e-07
-1.31673e-06
-2.23171e-06
-3.17802e-06
-4.15652e-06
-5.16802e-06
-6.21335e-06
-7.29331e-06
-8.40859e-06
-9.55981e-06
-1.07474e-05
-1.19714e-05
-1.32318e-05
-1.4528e-05
-1.58587e-05
-1.72225e-05
-1.86169e-05
-2.00394e-05
-2.14866e-05
-2.29548e-05
-2.44404e-05
-2.59394e-05
-2.74484e-05
-2.8964e-05
-3.04832e-05
-3.20037e-05
-3.35237e-05
-3.50416e-05
-3.65566e-05
-3.80681e-05
-3.95758e-05
-4.10799e-05
-4.25807e-05
-4.40785e-05
-4.55749e-05
-4.70719e-05
-4.85705e-05
-5.00711e-05
-5.15742e-05
-5.30801e-05
-5.45893e-05
-5.61024e-05
-5.76198e-05
-5.9142e-05
-6.06697e-05
-6.22033e-05
-6.37434e-05
-6.52906e-05
-6.68453e-05
-6.84083e-05
-6.99799e-05
-7.15608e-05
-7.31515e-05
-7.47525e-05
-7.63643e-05
-7.79876e-05
-7.96227e-05
-8.12702e-05
-8.29306e-05
-8.46043e-05
-8.62919e-05
-8.79939e-05
-8.97107e-05
-9.14428e-05
-9.31906e-05
-9.49546e-05
-9.67353e-05
-9.85332e-05
-0.000100349
-0.000102182
-0.000104034
-0.000105904
-0.000107794
-0.000109704
-0.000111634
-0.000113584
-0.000115556
-0.000117549
-0.000119565
-0.000121603
-0.000123665
-0.000125751
-0.000127861
-0.000129995
-0.000132155
-0.00013434
-0.000136551
-0.000138789
-0.000141053
-0.000143344
-0.000145663
-0.000148011
-0.000150387
-0.000152791
-0.000155226
-0.00015769
-0.000160185
-0.00016271
-0.000165267
-0.000167856
-0.000170477
-0.000173131
-0.000175818
-0.000178538
-0.000181294
-0.000184083
-0.000186908
-0.000189769
-0.000192666
-0.0001956
-0.000198571
-0.00020158
-0.000204627
-0.000207714
-0.000210839
-0.000214005
-0.000217212
-0.000220459
-0.000223748
-0.00022708
-0.000230454
-0.000233872
-0.000237334
-0.000240841
-0.000244393
-0.000247991
-0.000251635
-0.000255327
-0.000259066
-0.000262854
-0.000266691
-0.000270578
-0.000274515
-0.000278503
-0.000282543
-0.000286636
-0.000290782
-0.000294982
-0.000299236
-0.000303546
-0.000307912
-0.000312335
-0.000316815
-0.000321354
-0.000325952
-0.00033061
-0.000335328
-0.000340108
-0.000344951
-0.000349856
-0.000354826
-0.00035986
-0.000364961
-0.000370127
-0.000375361
-0.000380664
-0.000386035
-0.000391477
-0.000396989
-0.000402574
-0.000408231
-0.000413962
-0.000419768
-0.00042565
-0.000431608
-0.000437644
-0.000443758
-0.000449953
-0.000456228
-0.000462584
-0.000469024
-0.000475548
-0.000482156
-0.000488851
-0.000495634
-0.000502506
-0.000509467
-0.000516521
-0.000523666
-0.000530906
-0.00053824
-0.00054567
-0.000553198
-0.000560824
-0.000568549
-0.000576376
-0.000584304
-0.000592336
-0.000600471
-0.000608712
-0.00061706
-0.000625515
-0.000634078
-0.000642751
-0.000651534
-0.000660429
-0.000669436
-0.000678557
-0.000687793
-0.000697145
-0.000638279
-0.000639379
-0.000640465
-0.000641536
-0.000642594
-0.000643637
-0.000644667
-0.000645684
-0.000646689
-0.00064768
-0.000648659
-0.000649626
-0.000650581
-0.000651524
-0.000652455
-0.000653376
-0.000654285
-0.000655183
-0.000656071
-0.000656948
-0.000657814
-0.000658671
-0.000659517
-0.000660353
-0.00066118
-0.000661997
-0.000662805
-0.000663604
-0.000664393
-0.000665173
-0.000665945
-0.000666708
-0.000667462
-0.000668208
-0.000668945
-0.000669674
-0.000670395
-0.000671108
-0.000671813
-0.00067251
-0.0006732
-0.000673881
-0.000674556
-0.000675223
-0.000675882
-0.000676535
-0.00067718
-0.000677818
-0.000678449
-0.000679073
-0.000679691
-0.000680302
-0.000680906
-0.000681503
-0.000682094
-0.000682678
-0.000683257
-0.000683828
-0.000684394
-0.000684953
-0.000685507
-0.000686054
-0.000686595
-0.00068713
-0.00068766
-0.000688183
-0.000688701
-0.000689213
-0.00068972
-0.00069022
-0.000690716
-0.000691206
-0.00069169
-0.000692169
-0.000692643
-0.000693111
-0.000693574
-0.000694032
-0.000694485
-0.000694932
-0.000695375
-0.000695812
-0.000696244
-0.000696672
-0.000697094
-0.000697512
-0.000697925
-0.000698333
-0.000698736
-0.000699135
-0.000699528
-0.000699918
-0.000700302
-0.000700682
-0.000701057
-0.000701428
-0.000701794
-0.000702156
-0.000702514
-0.000702867
-0.000703215
-0.000703559
-0.000703899
-0.000704235
-0.000704566
-0.000704894
-0.000705216
-0.000705535
-0.00070585
-0.00070616
-0.000706467
-0.000706769
-0.000707067
-0.000707361
-0.000707651
-0.000707937
-0.00070822
-0.000708498
-0.000708772
-0.000709043
-0.000709309
-0.000709572
-0.000709831
-0.000710086
-0.000710337
-0.000710584
-0.000710828
-0.000711068
-0.000711304
-0.000711537
-0.000711766
-0.000711991
-0.000712212
-0.00071243
-0.000712644
-0.000712855
-0.000713062
-0.000713266
-0.000713466
-0.000713662
-0.000713855
-0.000714044
-0.00071423
-0.000714413
-0.000714592
-0.000714767
-0.00071494
-0.000715108
-0.000715274
-0.000715435
-0.000715594
-0.000715749
-0.000715901
-0.000716049
-0.000716194
-0.000716336
-0.000716475
-0.00071661
-0.000716742
-0.00071687
-0.000716996
-0.000717118
-0.000717237
-0.000717352
-0.000717465
-0.000717574
-0.00071768
-0.000717782
-0.000717882
-0.000717978
-0.000718071
-0.000718161
-0.000718248
-0.000718332
-0.000718412
-0.00071849
-0.000718564
-0.000718635
-0.000718703
-0.000718768
-0.000718829
-0.000718888
-0.000718943
-0.000718996
-0.000719045
-0.000719091
-0.000719134
-0.000719174
-0.000719211
-0.000719245
-0.000719276
-0.000719303
-0.000719328
-0.000719349
-0.000719368
-0.000719383
-0.000719396
-0.000719405
-0.000719411
-0.000719414
)
;
    }
    outlet
    {
        type            cyclic;
        value           nonuniform List<scalar> 
400
(
4.32296e-07
1.31673e-06
2.23171e-06
3.17802e-06
4.15652e-06
5.16802e-06
6.21335e-06
7.29331e-06
8.40859e-06
9.55981e-06
1.07474e-05
1.19714e-05
1.32318e-05
1.4528e-05
1.58587e-05
1.72225e-05
1.86169e-05
2.00394e-05
2.14866e-05
2.29548e-05
2.44404e-05
2.59394e-05
2.74484e-05
2.8964e-05
3.04832e-05
3.20037e-05
3.35237e-05
3.50416e-05
3.65566e-05
3.80681e-05
3.95758e-05
4.10799e-05
4.25807e-05
4.40785e-05
4.55749e-05
4.70719e-05
4.85705e-05
5.00711e-05
5.15742e-05
5.30801e-05
5.45893e-05
5.61024e-05
5.76198e-05
5.9142e-05
6.06697e-05
6.22033e-05
6.37434e-05
6.52906e-05
6.68453e-05
6.84083e-05
6.99799e-05
7.15608e-05
7.31515e-05
7.47525e-05
7.63643e-05
7.79876e-05
7.96227e-05
8.12702e-05
8.29306e-05
8.46043e-05
8.62919e-05
8.79939e-05
8.97107e-05
9.14428e-05
9.31906e-05
9.49546e-05
9.67353e-05
9.85332e-05
0.000100349
0.000102182
0.000104034
0.000105904
0.000107794
0.000109704
0.000111634
0.000113584
0.000115556
0.000117549
0.000119565
0.000121603
0.000123665
0.000125751
0.000127861
0.000129995
0.000132155
0.00013434
0.000136551
0.000138789
0.000141053
0.000143344
0.000145663
0.000148011
0.000150387
0.000152791
0.000155226
0.00015769
0.000160185
0.00016271
0.000165267
0.000167856
0.000170477
0.000173131
0.000175818
0.000178538
0.000181294
0.000184083
0.000186908
0.000189769
0.000192666
0.0001956
0.000198571
0.00020158
0.000204627
0.000207714
0.000210839
0.000214005
0.000217212
0.000220459
0.000223748
0.00022708
0.000230454
0.000233872
0.000237334
0.000240841
0.000244393
0.000247991
0.000251635
0.000255327
0.000259066
0.000262854
0.000266691
0.000270578
0.000274515
0.000278503
0.000282543
0.000286636
0.000290782
0.000294982
0.000299236
0.000303546
0.000307912
0.000312335
0.000316815
0.000321354
0.000325952
0.00033061
0.000335328
0.000340108
0.000344951
0.000349856
0.000354826
0.00035986
0.000364961
0.000370127
0.000375361
0.000380664
0.000386035
0.000391477
0.000396989
0.000402574
0.000408231
0.000413962
0.000419768
0.00042565
0.000431608
0.000437644
0.000443758
0.000449953
0.000456228
0.000462584
0.000469024
0.000475548
0.000482156
0.000488851
0.000495634
0.000502506
0.000509467
0.000516521
0.000523666
0.000530906
0.00053824
0.00054567
0.000553198
0.000560824
0.000568549
0.000576376
0.000584304
0.000592336
0.000600471
0.000608712
0.00061706
0.000625515
0.000634078
0.000642751
0.000651534
0.000660429
0.000669436
0.000678557
0.000687793
0.000697145
0.000638279
0.000639379
0.000640465
0.000641536
0.000642594
0.000643637
0.000644667
0.000645684
0.000646689
0.00064768
0.000648659
0.000649626
0.000650581
0.000651524
0.000652455
0.000653376
0.000654285
0.000655183
0.000656071
0.000656948
0.000657814
0.000658671
0.000659517
0.000660353
0.00066118
0.000661997
0.000662805
0.000663604
0.000664393
0.000665173
0.000665945
0.000666708
0.000667462
0.000668208
0.000668945
0.000669674
0.000670395
0.000671108
0.000671813
0.00067251
0.0006732
0.000673881
0.000674556
0.000675223
0.000675882
0.000676535
0.00067718
0.000677818
0.000678449
0.000679073
0.000679691
0.000680302
0.000680906
0.000681503
0.000682094
0.000682678
0.000683257
0.000683828
0.000684394
0.000684953
0.000685507
0.000686054
0.000686595
0.00068713
0.00068766
0.000688183
0.000688701
0.000689213
0.00068972
0.00069022
0.000690716
0.000691206
0.00069169
0.000692169
0.000692643
0.000693111
0.000693574
0.000694032
0.000694485
0.000694932
0.000695375
0.000695812
0.000696244
0.000696672
0.000697094
0.000697512
0.000697925
0.000698333
0.000698736
0.000699135
0.000699528
0.000699918
0.000700302
0.000700682
0.000701057
0.000701428
0.000701794
0.000702156
0.000702514
0.000702867
0.000703215
0.000703559
0.000703899
0.000704235
0.000704566
0.000704894
0.000705216
0.000705535
0.00070585
0.00070616
0.000706467
0.000706769
0.000707067
0.000707361
0.000707651
0.000707937
0.00070822
0.000708498
0.000708772
0.000709043
0.000709309
0.000709572
0.000709831
0.000710086
0.000710337
0.000710584
0.000710828
0.000711068
0.000711304
0.000711537
0.000711766
0.000711991
0.000712212
0.00071243
0.000712644
0.000712855
0.000713062
0.000713266
0.000713466
0.000713662
0.000713855
0.000714044
0.00071423
0.000714413
0.000714592
0.000714767
0.00071494
0.000715108
0.000715274
0.000715435
0.000715594
0.000715749
0.000715901
0.000716049
0.000716194
0.000716336
0.000716475
0.00071661
0.000716742
0.00071687
0.000716996
0.000717118
0.000717237
0.000717352
0.000717465
0.000717574
0.00071768
0.000717782
0.000717882
0.000717978
0.000718071
0.000718161
0.000718248
0.000718332
0.000718412
0.00071849
0.000718564
0.000718635
0.000718703
0.000718768
0.000718829
0.000718888
0.000718943
0.000718996
0.000719045
0.000719091
0.000719134
0.000719174
0.000719211
0.000719245
0.000719276
0.000719303
0.000719328
0.000719349
0.000719368
0.000719383
0.000719396
0.000719405
0.000719411
0.000719414
)
;
    }
    frontAndBack
    {
        type            empty;
        value           nonuniform List<scalar> 0();
    }
}


// ************************************************************************* //
