/*--------------------------------*- C++ -*----------------------------------*\
| =========                 |                                                 |
| \\      /  F ield         | OpenFOAM: The Open Source CFD Toolbox           |
|  \\    /   O peration     | Version:  2212                                  |
|   \\  /    A nd           | Website:  www.openfoam.com                      |
|    \\/     M anipulation  |                                                 |
\*---------------------------------------------------------------------------*/
FoamFile
{
    version     2.0;
    format      ascii;
    arch        "LSB;label=32;scalar=64";
    class       volScalarField;
    location    "43892";
    object      Pk_dBij;
}
// * * * * * * * * * * * * * * * * * * * * * * * * * * * * * * * * * * * * * //

dimensions      [0 2 -3 0 0 0 0];

internalField   nonuniform List<scalar> 
400
(
-3.22905e-19
-1.63976e-18
1.85565e-17
-1.40656e-17
2.19972e-17
3.45165e-17
-1.62571e-16
-3.40852e-17
1.03212e-15
6.00645e-15
2.64522e-14
9.76918e-14
3.04269e-13
7.79798e-13
1.5731e-12
2.29595e-12
1.90089e-12
-2.78075e-13
-1.3018e-12
8.93591e-12
4.65547e-11
1.2497e-10
2.44094e-10
3.87645e-10
5.31923e-10
6.58831e-10
7.68885e-10
9.01027e-10
1.10829e-09
1.22534e-09
2.49721e-10
-4.54674e-09
9.04664e-09
1.59912e-08
-1.20324e-08
-8.78827e-09
8.74024e-09
4.59873e-09
2.12239e-09
1.85334e-09
2.12344e-09
2.26509e-09
2.30586e-09
2.33144e-09
2.35914e-09
2.38225e-09
2.3963e-09
2.40634e-09
2.43425e-09
2.43928e-09
2.4002e-09
2.39211e-09
2.39924e-09
2.3805e-09
2.35528e-09
2.32865e-09
2.29963e-09
2.26758e-09
2.2325e-09
2.1947e-09
2.15445e-09
2.11186e-09
2.06715e-09
2.02046e-09
1.97185e-09
1.92149e-09
1.86857e-09
1.80966e-09
1.74233e-09
1.68361e-09
1.67571e-09
1.65738e-09
1.16183e-09
-3.17207e-10
-1.30913e-09
9.59232e-09
6.89464e-09
-1.1124e-08
-1.71262e-09
6.49939e-09
6.32555e-10
4.50432e-10
5.14449e-10
4.89802e-10
4.62125e-10
4.05001e-10
3.47447e-10
2.95535e-10
2.48559e-10
2.05541e-10
1.66142e-10
1.30266e-10
9.76693e-11
6.84628e-11
4.23539e-11
1.89124e-11
-1.91919e-12
-2.01811e-11
-3.59333e-11
-4.97294e-11
-6.16128e-11
-7.14956e-11
-7.96675e-11
-8.63989e-11
-9.18163e-11
-9.60593e-11
-9.9173e-11
-1.01413e-10
-1.02883e-10
-1.03458e-10
-1.03346e-10
-1.02905e-10
-1.02151e-10
-1.01069e-10
-9.95804e-11
-9.79007e-11
-9.61714e-11
-9.43743e-11
-9.24261e-11
-9.04027e-11
-8.83581e-11
-8.66514e-11
-8.51322e-11
-8.34492e-11
-8.16886e-11
-8.02734e-11
-7.9349e-11
-7.82976e-11
-7.71666e-11
-7.63392e-11
-7.57038e-11
-7.52228e-11
-7.50784e-11
-7.49206e-11
-7.48938e-11
-7.51109e-11
-7.55038e-11
-7.58676e-11
-7.64454e-11
-7.7396e-11
-7.84651e-11
-7.98988e-11
-8.14448e-11
-8.3223e-11
-8.53258e-11
-8.77018e-11
-9.05986e-11
-9.39215e-11
-9.78094e-11
-1.02399e-10
-1.07427e-10
-1.13245e-10
-1.2014e-10
-1.28089e-10
-1.3726e-10
-1.47798e-10
-1.59834e-10
-1.73493e-10
-1.89137e-10
-2.06969e-10
-2.27156e-10
-2.49815e-10
-2.74572e-10
-3.00927e-10
-3.29565e-10
-3.67327e-10
-4.03458e-10
-4.78431e-10
-5.85306e-10
8.37163e-10
-5.90014e-10
-2.92279e-09
5.89186e-10
1.55312e-09
-4.062e-10
-2.15719e-10
1.54518e-11
6.54598e-11
3.4884e-11
3.72198e-12
-1.41767e-11
-1.6679e-11
2.60646e-12
5.20278e-11
1.38414e-10
2.66786e-10
4.39976e-10
6.58057e-10
9.17399e-10
1.20823e-09
1.51536e-09
1.82243e-09
2.1231e-09
2.37013e-09
2.31468e-09
1.58338e-09
6.83781e-10
6.00551e-09
2.70588e-09
-7.4499e-09
-8.98795e-10
2.44859e-09
-1.75122e-09
-1.42089e-09
-1.24432e-09
-1.15262e-09
-1.03149e-09
-9.20354e-10
-8.06254e-10
-6.92874e-10
-5.85185e-10
-4.85883e-10
-3.96709e-10
-3.18528e-10
-2.51369e-10
-1.9488e-10
-1.48327e-10
-1.10567e-10
-8.05664e-11
-5.72439e-11
-3.93415e-11
-2.58918e-11
-1.61564e-11
-9.24904e-12
-4.57389e-12
-1.63088e-12
5.65511e-14
7.77665e-13
7.87432e-13
3.66064e-13
-3.53623e-13
-1.28577e-12
-2.24934e-12
-3.29018e-12
-4.42114e-12
-5.45582e-12
-6.35062e-12
-7.25731e-12
-8.17311e-12
-8.95772e-12
-9.67207e-12
-1.03365e-11
-1.09385e-11
-1.1531e-11
-1.20474e-11
-1.24946e-11
-1.29813e-11
-1.33906e-11
-1.37476e-11
-1.41439e-11
-1.45063e-11
-1.48564e-11
-1.51697e-11
-1.55262e-11
-1.58853e-11
-1.61303e-11
-1.64025e-11
-1.67157e-11
-1.69804e-11
-1.72184e-11
-1.75038e-11
-1.77553e-11
-1.79379e-11
-1.81755e-11
-1.84025e-11
-1.85517e-11
-1.8694e-11
-1.88431e-11
-1.896e-11
-1.90811e-11
-1.91756e-11
-1.92224e-11
-1.93278e-11
-1.94107e-11
-1.94067e-11
-1.93918e-11
-1.93495e-11
-1.93066e-11
-1.92467e-11
-1.91416e-11
-1.90438e-11
-1.89194e-11
-1.87528e-11
-1.85682e-11
-1.83625e-11
-1.81353e-11
-1.79167e-11
-1.76715e-11
-1.73628e-11
-1.70396e-11
-1.67121e-11
-1.63824e-11
-1.60227e-11
-1.56319e-11
-1.52405e-11
-1.48433e-11
-1.44345e-11
-1.39844e-11
-1.35253e-11
-1.30818e-11
-1.26122e-11
-1.21377e-11
-1.16782e-11
-1.11992e-11
-1.0696e-11
-1.02015e-11
-9.7146e-12
-9.2208e-12
-8.74365e-12
-8.26708e-12
-7.77613e-12
-7.2982e-12
-6.83817e-12
-6.38508e-12
-5.93651e-12
-5.4965e-12
-5.06262e-12
-4.64481e-12
-4.2457e-12
-3.85784e-12
-3.48703e-12
-3.11311e-12
-2.76763e-12
-2.44804e-12
-2.13757e-12
-1.8384e-12
-1.55799e-12
-1.29889e-12
-1.05752e-12
-8.31524e-13
-6.25384e-13
-4.34342e-13
-2.5605e-13
-9.80955e-14
4.4784e-14
1.73903e-13
2.83345e-13
3.81068e-13
4.6717e-13
5.39873e-13
6.02263e-13
6.49531e-13
6.84196e-13
7.1178e-13
7.31036e-13
7.4031e-13
7.41373e-13
7.3746e-13
7.2626e-13
7.11125e-13
6.90992e-13
6.67953e-13
6.41152e-13
6.10942e-13
5.78892e-13
5.44812e-13
5.09818e-13
4.75078e-13
4.40415e-13
4.06033e-13
3.72516e-13
3.39463e-13
3.07157e-13
2.77242e-13
2.49964e-13
2.21708e-13
1.96416e-13
1.72833e-13
1.51332e-13
1.3178e-13
1.13833e-13
9.76854e-14
8.35133e-14
7.0331e-14
5.8958e-14
4.90567e-14
4.03936e-14
3.28593e-14
2.68471e-14
2.17082e-14
1.70472e-14
1.33272e-14
1.03186e-14
7.87544e-15
5.92396e-15
4.39432e-15
3.20624e-15
2.29462e-15
1.6054e-15
1.09742e-15
7.28832e-16
4.69618e-16
3.0343e-16
1.74832e-16
9.7214e-17
5.0871e-17
2.55138e-17
7.02295e-18
4.82795e-18
-6.90931e-20
)
;

boundaryField
{
    topWall
    {
        type            symmetry;
    }
    bottomWall
    {
        type            calculated;
        value           uniform -0;
    }
    inlet
    {
        type            cyclic;
    }
    outlet
    {
        type            cyclic;
    }
    frontAndBack
    {
        type            empty;
    }
}


// ************************************************************************* //
