/*--------------------------------*- C++ -*----------------------------------*\
| =========                 |                                                 |
| \\      /  F ield         | OpenFOAM: The Open Source CFD Toolbox           |
|  \\    /   O peration     | Version:  2212                                  |
|   \\  /    A nd           | Website:  www.openfoam.com                      |
|    \\/     M anipulation  |                                                 |
\*---------------------------------------------------------------------------*/
FoamFile
{
    version     2.0;
    format      ascii;
    arch        "LSB;label=32;scalar=64";
    class       volSymmTensorField;
    location    "43892";
    object      T1;
}
// * * * * * * * * * * * * * * * * * * * * * * * * * * * * * * * * * * * * * //

dimensions      [0 0 0 0 0 0 0];

internalField   nonuniform List<symmTensor> 
400
(
(0 7.95773e-05 0 -6.54995e-13 0 0)
(0 0.000482508 0 -1.82593e-12 0 0)
(0 0.00141184 0 -1.81423e-12 0 0)
(0 0.00297566 0 -2.49856e-11 0 0)
(0 0.00522211 0 -1.3904e-10 0 0)
(0 0.00818024 0 -6.16247e-10 0 0)
(0 0.0118698 0 -2.40616e-09 0 0)
(0 0.0163021 0 -8.38929e-09 0 0)
(0 0.0214776 0 -2.59423e-08 0 0)
(0 0.0273824 0 -7.06989e-08 0 0)
(0 0.033984 0 -1.69125e-07 0 0)
(0 0.0412271 0 -3.53594e-07 0 0)
(-6.49752e-18 0.0490306 0 -6.41058e-07 0 0)
(0 0.0572862 0 -9.9221e-07 0 0)
(0 0.0658598 0 -1.26819e-06 0 0)
(0 0.0745957 0 -1.22821e-06 0 0)
(0 0.0833253 0 -6.13807e-07 0 0)
(0 0.0918773 0 6.85269e-07 0 0)
(0 0.10009 0 2.47584e-06 0 0)
(2.878e-17 0.107823 0 4.25033e-06 0 0)
(0 0.114967 0 5.37893e-06 0 0)
(0 0.121447 0 5.41005e-06 0 0)
(0 0.127226 0 4.28819e-06 0 0)
(0 0.132301 0 2.35697e-06 0 0)
(0 0.136694 0 1.73922e-07 0 0)
(8.46458e-17 0.140451 0 -1.72485e-06 0 0)
(0 0.143626 0 -3.01448e-06 0 0)
(0 0.146284 0 -3.77831e-06 0 0)
(-9.7721e-17 0.148489 0 -4.62818e-06 0 0)
(0 0.150302 0 -5.61961e-06 0 0)
(-1.06346e-16 0.151783 0 -6.87101e-07 0 0)
(1.10639e-16 0.15298 0 3.23579e-05 0 0)
(0 0.153934 0 1.05291e-05 0 0)
(0 0.154755 0 -7.52052e-05 0 0)
(0 0.155 0 -4.10676e-05 0 0)
(0 0.155 0 4.07283e-05 0 0)
(1.30116e-16 0.155 0 3.08446e-05 0 0)
(0 0.155 0 2.94411e-06 0 0)
(0 0.155 0 -2.5089e-06 0 0)
(0 0.155 0 -9.47799e-07 0 0)
(0 0.155 0 4.98355e-08 0 0)
(0 0.155 0 1.1555e-07 0 0)
(0 0.155 0 2.16017e-08 0 0)
(0 0.155 0 -3.76524e-09 0 0)
(0 0.155 0 5.5424e-09 0 0)
(0 0.155 0 1.84952e-08 0 0)
(0 0.155 0 4.23671e-08 0 0)
(0 0.155 0 7.78849e-08 0 0)
(-3.56962e-16 0.155 0 3.81407e-08 0 0)
(0 0.155 0 -4.82107e-08 0 0)
(0 0.155 0 -1.19051e-08 0 0)
(0 0.155 0 6.886e-08 0 0)
(0 0.155 0 6.90323e-08 0 0)
(-4.0063e-16 0.155 0 4.41757e-08 0 0)
(0 0.155 0 3.41193e-08 0 0)
(-4.18304e-16 0.155 0 3.3117e-08 0 0)
(0 0.155 0 3.32334e-08 0 0)
(0 0.155 0 3.25421e-08 0 0)
(0 0.155 0 3.13985e-08 0 0)
(0 0.155 0 3.0114e-08 0 0)
(0 0.155 0 2.87355e-08 0 0)
(0 0.155 0 2.7259e-08 0 0)
(0 0.155 0 2.5719e-08 0 0)
(4.89106e-16 0.155 0 2.41826e-08 0 0)
(0 0.155 0 2.26712e-08 0 0)
(0 0.155 0 2.10892e-08 0 0)
(0 0.155 0 1.98065e-08 0 0)
(0 0.155 0 2.18886e-08 0 0)
(0 0.155 0 3.41105e-08 0 0)
(0 0.155 0 5.34444e-08 0 0)
(-5.50088e-16 0.155 0 3.52345e-08 0 0)
(0 0.155 0 -5.84975e-08 0 0)
(0 0.155 0 1.15259e-07 0 0)
(0 0.155 0 1.67005e-06 0 0)
(0 0.155 0 4.88669e-06 0 0)
(-1.1851e-15 0.155 0 -8.92994e-07 0 0)
(0 0.155 0 -1.13237e-05 0 0)
(1.21709e-15 0.154973 0 -3.55317e-06 0 0)
(0 0.154938 0 7.19322e-06 0 0)
(-1.24725e-15 0.154913 0 3.25054e-06 0 0)
(0 0.154887 0 -7.2177e-07 0 0)
(0 0.154862 0 -3.25127e-07 0 0)
(0 0.154838 0 -7.70874e-08 0 0)
(0 0.154815 0 1.47385e-09 0 0)
(0 0.154793 0 2.20221e-08 0 0)
(0 0.154771 0 1.56019e-08 0 0)
(0 0.154751 0 1.04448e-08 0 0)
(0 0.154731 0 8.62229e-09 0 0)
(0 0.154711 0 7.94502e-09 0 0)
(0 0.154693 0 7.48868e-09 0 0)
(0 0.154675 0 7.01267e-09 0 0)
(0 0.154658 0 6.52895e-09 0 0)
(0 0.154642 0 6.07152e-09 0 0)
(0 0.154627 0 5.65093e-09 0 0)
(0 0.154612 0 5.26512e-09 0 0)
(0 0.154599 0 4.90969e-09 0 0)
(0 0.154586 0 4.58195e-09 0 0)
(0 0.154574 0 4.27978e-09 0 0)
(0 0.154563 0 4.0005e-09 0 0)
(0 0.154552 0 3.74205e-09 0 0)
(0 0.154543 0 3.50306e-09 0 0)
(0 0.154534 0 3.28165e-09 0 0)
(0 0.154526 0 3.07665e-09 0 0)
(0 0.154519 0 2.88657e-09 0 0)
(0 0.154512 0 2.71e-09 0 0)
(0 0.154506 0 2.54612e-09 0 0)
(0 0.154501 0 2.39399e-09 0 0)
(0 0.154496 0 2.25238e-09 0 0)
(0 0.154493 0 2.12046e-09 0 0)
(0 0.154489 0 1.99806e-09 0 0)
(-1.65413e-15 0.154487 0 1.88385e-09 0 0)
(0 0.154485 0 1.77712e-09 0 0)
(0 0.154484 0 1.67785e-09 0 0)
(0 0.154484 0 1.5853e-09 0 0)
(0 0.154484 0 1.4987e-09 0 0)
(0 0.154484 0 1.41768e-09 0 0)
(0 0.154486 0 1.34215e-09 0 0)
(-1.73105e-15 0.154487 0 1.27145e-09 0 0)
(0 0.15449 0 1.20547e-09 0 0)
(0 0.154493 0 1.14359e-09 0 0)
(0 0.154496 0 1.0848e-09 0 0)
(0 0.1545 0 1.03107e-09 0 0)
(0 0.154505 0 9.80641e-10 0 0)
(-1.79306e-15 0.15451 0 9.32164e-10 0 0)
(0 0.154515 0 8.8774e-10 0 0)
(0 0.154521 0 8.4515e-10 0 0)
(0 0.154528 0 8.05882e-10 0 0)
(0 0.154534 0 7.69649e-10 0 0)
(-3.68427e-15 0.154542 0 7.33707e-10 0 0)
(0 0.154549 0 7.01433e-10 0 0)
(0 0.154557 0 6.71874e-10 0 0)
(-3.741e-15 0.154566 0 6.41541e-10 0 0)
(0 0.154574 0 6.14109e-10 0 0)
(-3.77797e-15 0.154583 0 5.9049e-10 0 0)
(0 0.154593 0 5.65758e-10 0 0)
(0 0.154603 0 5.42707e-10 0 0)
(0 0.154613 0 5.22489e-10 0 0)
(0 0.154623 0 5.02105e-10 0 0)
(0 0.154633 0 4.83796e-10 0 0)
(0 0.154644 0 4.66308e-10 0 0)
(0 0.154655 0 4.50111e-10 0 0)
(0 0.154666 0 4.35237e-10 0 0)
(3.93638e-15 0.154678 0 4.19746e-10 0 0)
(0 0.154689 0 4.06941e-10 0 0)
(0 0.154701 0 3.95092e-10 0 0)
(0 0.154713 0 3.82923e-10 0 0)
(0 0.154725 0 3.71619e-10 0 0)
(0 0.154737 0 3.61672e-10 0 0)
(0 0.154749 0 3.53056e-10 0 0)
(0 0.154762 0 3.43501e-10 0 0)
(0 0.154774 0 3.35003e-10 0 0)
(0 0.154786 0 3.28647e-10 0 0)
(0 0.154798 0 3.21347e-10 0 0)
(0 0.15481 0 3.1367e-10 0 0)
(0 0.154822 0 3.08556e-10 0 0)
(0 0.154834 0 3.03459e-10 0 0)
(0 0.154846 0 2.98176e-10 0 0)
(0 0.154858 0 2.94153e-10 0 0)
(0 0.15487 0 2.82868e-10 0 0)
(0 0.154881 0 2.43793e-10 0 0)
(0 0.154892 0 1.73514e-10 0 0)
(0 0.154903 0 2.13439e-10 0 0)
(0 0.154914 0 7.6619e-10 0 0)
(0 0.154924 0 3.4725e-09 0 0)
(0 0.154934 0 7.03491e-09 0 0)
(0 0.154943 0 -1.10044e-08 0 0)
(0 0.154952 0 -4.16476e-08 0 0)
(0 0.154961 0 -2.18699e-07 0 0)
(4.33548e-15 0.154969 0 -7.02146e-07 0 0)
(0 0.154977 0 3.14802e-06 0 0)
(0 0.154983 0 2.79605e-06 0 0)
(0 0.154999 0 -5.39653e-06 0 0)
(0 0.155 0 -3.26548e-06 0 0)
(0 0.155 0 2.14289e-06 0 0)
(0 0.155 0 1.06662e-06 0 0)
(0 0.155 0 1.96768e-07 0 0)
(0 0.155 0 2.47476e-08 0 0)
(0 0.155 0 5.28786e-08 0 0)
(0 0.155 0 5.06908e-08 0 0)
(0 0.155 0 2.31051e-08 0 0)
(0 0.155 0 -1.90795e-09 0 0)
(0 0.155 0 -1.94392e-08 0 0)
(0 0.155 0 -3.28142e-08 0 0)
(-9.01595e-15 0.155 0 -4.38539e-08 0 0)
(0 0.155 0 -5.23367e-08 0 0)
(0 0.155 0 -5.70777e-08 0 0)
(0 0.155 0 -5.62227e-08 0 0)
(0 0.155 0 -4.72186e-08 0 0)
(0 0.155 0 -2.67531e-08 0 0)
(0 0.155 0 1.02858e-08 0 0)
(0 0.155 0 7.39097e-08 0 0)
(0 0.155 0 1.77694e-07 0 0)
(0 0.155 0 3.10773e-07 0 0)
(0 0.155 0 3.92459e-07 0 0)
(0 0.155 0 4.15274e-07 0 0)
(0 0.155 0 1.11383e-06 0 0)
(0 0.155 0 4.08826e-06 0 0)
(0 0.155 0 6.40187e-06 0 0)
(0 0.155 0 -1.15816e-05 0 0)
(0 0.154993 0 -1.63556e-05 0 0)
(0 0.154934 0 1.04919e-05 0 0)
(0 0.15491 0 9.98455e-06 0 0)
(0 0.15488 0 -2.63983e-06 0 0)
(0 0.154849 0 -6.93528e-07 0 0)
(0 0.154816 0 -1.1925e-07 0 0)
(0 0.154781 0 -3.36478e-08 0 0)
(0 0.154743 0 2.53877e-08 0 0)
(0 0.154702 0 1.01509e-08 0 0)
(0 0.154659 0 1.08688e-09 0 0)
(0 0.154613 0 -3.55628e-10 0 0)
(0 0.154565 0 -4.09092e-10 0 0)
(0 0.154513 0 -1.62732e-10 0 0)
(0 0.154459 0 -5.05781e-11 0 0)
(0 0.154402 0 -3.55645e-11 0 0)
(0 0.154342 0 -4.13172e-11 0 0)
(0 0.154279 0 -4.91092e-11 0 0)
(0 0.154213 0 -5.70466e-11 0 0)
(0 0.154143 0 -6.62173e-11 0 0)
(0 0.154071 0 -7.72175e-11 0 0)
(0 0.153995 0 -8.99603e-11 0 0)
(0 0.153915 0 -1.04106e-10 0 0)
(0 0.153833 0 -1.19385e-10 0 0)
(0 0.153747 0 -1.35607e-10 0 0)
(0 0.153657 0 -1.52563e-10 0 0)
(0 0.153563 0 -1.70115e-10 0 0)
(0 0.153466 0 -1.88147e-10 0 0)
(0 0.153366 0 -2.06558e-10 0 0)
(0 0.153261 0 -2.2527e-10 0 0)
(0 0.153152 0 -2.44263e-10 0 0)
(0 0.15304 0 -2.63465e-10 0 0)
(0 0.152923 0 -2.82791e-10 0 0)
(0 0.152802 0 -3.02273e-10 0 0)
(0 0.152677 0 -3.21886e-10 0 0)
(0 0.152548 0 -3.41599e-10 0 0)
(0 0.152414 0 -3.61437e-10 0 0)
(0 0.152275 0 -3.8134e-10 0 0)
(0 0.152132 0 -4.01286e-10 0 0)
(0 0.151985 0 -4.21322e-10 0 0)
(0 0.151832 0 -4.41427e-10 0 0)
(0 0.151675 0 -4.61562e-10 0 0)
(0 0.151513 0 -4.81722e-10 0 0)
(0 0.151346 0 -5.01893e-10 0 0)
(0 0.151174 0 -5.22061e-10 0 0)
(0 0.150996 0 -5.42221e-10 0 0)
(0 0.150813 0 -5.6234e-10 0 0)
(0 0.150625 0 -5.82378e-10 0 0)
(0 0.150431 0 -6.02366e-10 0 0)
(0 0.150232 0 -6.22227e-10 0 0)
(0 0.150027 0 -6.41907e-10 0 0)
(0 0.149816 0 -6.61433e-10 0 0)
(0 0.149599 0 -6.80743e-10 0 0)
(0 0.149376 0 -6.99794e-10 0 0)
(0 0.149147 0 -7.18546e-10 0 0)
(0 0.148912 0 -7.36994e-10 0 0)
(0 0.14867 0 -7.55031e-10 0 0)
(0 0.148422 0 -7.72582e-10 0 0)
(0 0.148168 0 -7.89698e-10 0 0)
(0 0.147907 0 -8.06253e-10 0 0)
(0 0.147639 0 -8.2219e-10 0 0)
(0 0.147364 0 -8.3746e-10 0 0)
(0 0.147082 0 -8.51986e-10 0 0)
(0 0.146792 0 -8.65733e-10 0 0)
(0 0.146496 0 -8.7859e-10 0 0)
(0 0.146192 0 -8.90527e-10 0 0)
(0 0.145881 0 -9.01425e-10 0 0)
(0 0.145562 0 -9.11186e-10 0 0)
(0 0.145236 0 -9.19799e-10 0 0)
(0 0.144901 0 -9.27135e-10 0 0)
(0 0.144559 0 -9.33125e-10 0 0)
(0 0.144209 0 -9.37704e-10 0 0)
(0 0.14385 0 -9.4072e-10 0 0)
(0 0.143483 0 -9.42089e-10 0 0)
(0 0.143108 0 -9.41792e-10 0 0)
(0 0.142723 0 -9.39717e-10 0 0)
(0 0.142331 0 -9.35696e-10 0 0)
(0 0.141929 0 -9.29646e-10 0 0)
(0 0.141519 0 -9.21483e-10 0 0)
(0 0.141099 0 -9.11156e-10 0 0)
(0 0.14067 0 -8.98724e-10 0 0)
(0 0.140232 0 -8.83988e-10 0 0)
(0 0.139784 0 -8.66548e-10 0 0)
(0 0.139327 0 -8.46229e-10 0 0)
(0 0.13886 0 -8.23086e-10 0 0)
(0 0.138383 0 -7.97283e-10 0 0)
(0 0.137896 0 -7.68813e-10 0 0)
(0 0.137399 0 -7.37421e-10 0 0)
(0 0.136892 0 -7.02942e-10 0 0)
(0 0.136374 0 -6.65339e-10 0 0)
(0 0.135846 0 -6.24501e-10 0 0)
(0 0.135308 0 -5.80345e-10 0 0)
(0 0.134758 0 -5.32864e-10 0 0)
(0 0.134198 0 -4.81986e-10 0 0)
(0 0.133627 0 -4.27596e-10 0 0)
(0 0.133044 0 -3.6968e-10 0 0)
(0 0.132451 0 -3.08234e-10 0 0)
(0 0.131846 0 -2.43179e-10 0 0)
(0 0.131229 0 -1.74479e-10 0 0)
(0 0.130601 0 -1.02128e-10 0 0)
(0 0.129961 0 -2.61425e-11 0 0)
(0 0.12931 0 5.34647e-11 0 0)
(0 0.128646 0 1.36685e-10 0 0)
(0 0.127971 0 2.23441e-10 0 0)
(0 0.127283 0 3.13702e-10 0 0)
(0 0.126583 0 4.07453e-10 0 0)
(0 0.125871 0 5.04613e-10 0 0)
(0 0.125146 0 6.05054e-10 0 0)
(0 0.124408 0 7.08643e-10 0 0)
(0 0.123658 0 8.15294e-10 0 0)
(0 0.122895 0 9.24847e-10 0 0)
(0 0.122119 0 1.03715e-09 0 0)
(0 0.121331 0 1.15212e-09 0 0)
(0 0.120529 0 1.26946e-09 0 0)
(0 0.119714 0 1.38895e-09 0 0)
(0 0.118885 0 1.51041e-09 0 0)
(0 0.118044 0 1.63358e-09 0 0)
(0 0.117189 0 1.75823e-09 0 0)
(0 0.11632 0 1.88406e-09 0 0)
(0 0.115438 0 2.01071e-09 0 0)
(0 0.114543 0 2.13791e-09 0 0)
(0 0.113633 0 2.26529e-09 0 0)
(0 0.11271 0 2.39251e-09 0 0)
(0 0.111773 0 2.51923e-09 0 0)
(0 0.110823 0 2.64501e-09 0 0)
(0 0.109858 0 2.76936e-09 0 0)
(0 0.10888 0 2.89195e-09 0 0)
(0 0.107887 0 3.01243e-09 0 0)
(0 0.106881 0 3.13027e-09 0 0)
(0 0.10586 0 3.24494e-09 0 0)
(0 0.104825 0 3.356e-09 0 0)
(0 0.103777 0 3.46304e-09 0 0)
(0 0.102714 0 3.56553e-09 0 0)
(0 0.101637 0 3.66298e-09 0 0)
(0 0.100546 0 3.75493e-09 0 0)
(0 0.099441 0 3.84082e-09 0 0)
(0 0.0983219 0 3.9202e-09 0 0)
(0 0.0971886 0 3.99258e-09 0 0)
(0 0.0960413 0 4.05744e-09 0 0)
(0 0.0948799 0 4.11434e-09 0 0)
(0 0.0937045 0 4.1628e-09 0 0)
(0 0.0925152 0 4.20236e-09 0 0)
(0 0.0913119 0 4.2326e-09 0 0)
(0 0.0900948 0 4.25306e-09 0 0)
(0 0.0888638 0 4.26334e-09 0 0)
(0 0.0876191 0 4.26309e-09 0 0)
(0 0.0863607 0 4.25197e-09 0 0)
(0 0.0850886 0 4.22962e-09 0 0)
(0 0.0838031 0 4.19575e-09 0 0)
(0 0.0825041 0 4.15014e-09 0 0)
(0 0.0811917 0 4.09254e-09 0 0)
(0 0.0798661 0 4.02275e-09 0 0)
(0 0.0785273 0 3.94066e-09 0 0)
(0 0.0771756 0 3.84616e-09 0 0)
(0 0.0758109 0 3.73919e-09 0 0)
(0 0.0744334 0 3.61975e-09 0 0)
(-3.86448e-14 0.0730434 0 3.48786e-09 0 0)
(0 0.0716408 0 3.34363e-09 0 0)
(0 0.0702259 0 3.1872e-09 0 0)
(0 0.0687988 0 3.01878e-09 0 0)
(0 0.0673596 0 2.83862e-09 0 0)
(0 0.0659087 0 2.64701e-09 0 0)
(0 0.064446 0 2.44432e-09 0 0)
(0 0.0629719 0 2.23095e-09 0 0)
(0 0.0614864 0 2.00736e-09 0 0)
(0 0.0599899 0 1.77411e-09 0 0)
(-8.01555e-14 0.0584824 0 1.53174e-09 0 0)
(0 0.0569643 0 1.28085e-09 0 0)
(0 0.0554357 0 1.02214e-09 0 0)
(0 0.0538968 0 7.56325e-10 0 0)
(0 0.052348 0 4.84181e-10 0 0)
(0 0.0507893 0 2.06521e-10 0 0)
(0 0.0492211 0 -7.58286e-11 0 0)
(0 0.0476437 0 -3.61961e-10 0 0)
(-4.10143e-14 0.0460572 0 -6.50964e-10 0 0)
(0 0.0444619 0 -9.41924e-10 0 0)
(0 0.0428581 0 -1.23384e-09 0 0)
(0 0.0412461 0 -1.5257e-09 0 0)
(0 0.0396261 0 -1.8165e-09 0 0)
(0 0.0379984 0 -2.1052e-09 0 0)
(0 0.0363634 0 -2.39077e-09 0 0)
(-8.33181e-14 0.0347212 0 -2.6722e-09 0 0)
(0 0.0330723 0 -2.94849e-09 0 0)
(0 0.0314168 0 -3.21855e-09 0 0)
(0 0.0297552 0 -3.48134e-09 0 0)
(0 0.0280877 0 -3.7359e-09 0 0)
(0 0.0264146 0 -3.98123e-09 0 0)
(0 0.0247362 0 -4.21637e-09 0 0)
(0 0.0230529 0 -4.44042e-09 0 0)
(0 0.021365 0 -4.65256e-09 0 0)
(0 0.0196729 0 -4.85251e-09 0 0)
(0 0.0179768 0 -5.04097e-09 0 0)
(0 0.016277 0 -5.21613e-09 0 0)
(0 0.014574 0 -5.36017e-09 0 0)
(-4.23768e-14 0.0128681 0 -5.44432e-09 0 0)
(0 0.0111595 0 -5.58273e-09 0 0)
(0 0.00944879 0 -6.32045e-09 0 0)
(0 0.00773619 0 -7.61036e-09 0 0)
(0 0.00602212 0 -3.50642e-09 0 0)
(0 0.00430683 0 2.0136e-08 0 0)
(0 0.00259065 0 1.19439e-08 0 0)
(0 0.000866196 0 -5.02951e-08 0 0)
)
;

boundaryField
{
    topWall
    {
        type            symmetry;
    }
    bottomWall
    {
        type            calculated;
        value           uniform (0 7.95925e-05 0 -6.41295e-13 0 0);
    }
    inlet
    {
        type            cyclic;
    }
    outlet
    {
        type            cyclic;
    }
    frontAndBack
    {
        type            empty;
    }
}


// ************************************************************************* //
