/*--------------------------------*- C++ -*----------------------------------*\
| =========                 |                                                 |
| \\      /  F ield         | OpenFOAM: The Open Source CFD Toolbox           |
|  \\    /   O peration     | Version:  2212                                  |
|   \\  /    A nd           | Website:  www.openfoam.com                      |
|    \\/     M anipulation  |                                                 |
\*---------------------------------------------------------------------------*/
FoamFile
{
    version     2.0;
    format      ascii;
    arch        "LSB;label=32;scalar=64";
    class       volSymmTensorField;
    location    "43892";
    object      T5;
}
// * * * * * * * * * * * * * * * * * * * * * * * * * * * * * * * * * * * * * //

dimensions      [0 0 0 0 0 0 0];

internalField   nonuniform List<symmTensor> 
400
(
(-8.29556e-21 0 0 8.29556e-21 0 0)
(-8.50206e-19 0 0 8.50206e-19 0 0)
(-7.23253e-18 0 0 7.23253e-18 0 0)
(-4.42472e-16 0 0 4.42472e-16 0 0)
(-7.58334e-15 1.04164e-22 0 7.58334e-15 0 0)
(-8.24739e-14 3.12737e-21 0 8.24739e-14 0 0)
(-6.78017e-13 6.89559e-20 0 6.78017e-13 0 0)
(-4.45904e-12 1.14735e-18 0 4.45904e-12 0 0)
(-2.39336e-11 1.44553e-17 0 2.39336e-11 0 0)
(-1.06019e-10 1.36867e-16 0 1.06019e-10 0 0)
(-3.90648e-10 9.7205e-16 0 3.90648e-10 0 0)
(-1.20199e-09 5.15455e-15 0 1.20199e-09 0 0)
(-3.0822e-09 2.01494e-14 0 3.0822e-09 0 0)
(-6.51229e-09 5.63972e-14 0 6.51229e-09 0 0)
(-1.10016e-08 1.05923e-13 0 1.10016e-08 0 0)
(-1.36688e-08 1.12527e-13 0 1.36688e-08 0 0)
(-8.52346e-09 3.13936e-14 0 8.52346e-09 0 0)
(1.15693e-08 4.31451e-14 0 -1.15693e-08 0 0)
(4.9606e-08 6.13532e-13 0 -4.9606e-08 0 0)
(9.88271e-08 1.94786e-12 0 -9.88271e-08 0 0)
(1.42191e-07 3.32632e-12 0 -1.42191e-07 0 0)
(1.5959e-07 3.55459e-12 0 -1.5959e-07 0 0)
(1.38822e-07 2.33951e-12 0 -1.38822e-07 0 0)
(8.25109e-08 7.34975e-13 0 -8.25109e-08 0 0)
(6.49959e-09 4.13472e-15 0 -6.49959e-09 0 0)
(-6.80498e-08 4.17853e-13 0 6.80498e-08 0 0)
(-1.24368e-07 1.30514e-12 0 1.24368e-07 0 0)
(-1.61704e-07 2.08829e-12 0 1.61704e-07 0 0)
(-2.04094e-07 3.18065e-12 0 2.04094e-07 0 0)
(-2.53904e-07 4.74656e-12 0 2.53904e-07 0 0)
(-3.16588e-08 7.16577e-14 0 3.16588e-08 0 0)
(1.51453e-06 1.60175e-10 0 -1.51453e-06 0 0)
(4.98986e-07 1.70654e-11 0 -4.98986e-07 0 0)
(-3.60221e-06 8.75268e-10 0 3.60221e-06 0 0)
(-1.9733e-06 2.61414e-10 0 1.9733e-06 0 0)
(1.957e-06 2.57113e-10 0 -1.957e-06 0 0)
(1.48208e-06 1.47466e-10 0 -1.48208e-06 0 0)
(1.41464e-07 1.3435e-12 0 -1.41464e-07 0 0)
(-1.20553e-07 9.75661e-13 0 1.20553e-07 0 0)
(-4.55418e-08 1.3924e-13 0 4.55418e-08 0 0)
(2.3946e-09 3.84997e-16 0 -2.3946e-09 0 0)
(5.55218e-09 2.06979e-15 0 -5.55218e-09 0 0)
(1.03796e-09 7.22137e-17 0 -1.03796e-09 0 0)
(-1.8092e-10 2.9155e-18 0 1.8092e-10 0 0)
(2.66312e-10 4.8943e-18 0 -2.66312e-10 0 0)
(8.88694e-10 5.33446e-17 0 -8.88694e-10 0 0)
(2.03574e-09 2.78468e-16 0 -2.03574e-09 0 0)
(3.74237e-09 9.40735e-16 0 -3.74237e-09 0 0)
(1.83266e-09 2.2512e-16 0 -1.83266e-09 0 0)
(-2.31652e-09 3.60166e-16 0 2.31652e-09 0 0)
(-5.72042e-10 2.18826e-17 0 5.72042e-10 0 0)
(3.30872e-09 7.34897e-16 0 -3.30872e-09 0 0)
(3.317e-09 7.38443e-16 0 -3.317e-09 0 0)
(2.12264e-09 3.02541e-16 0 -2.12264e-09 0 0)
(1.63943e-09 1.80421e-16 0 -1.63943e-09 0 0)
(1.59127e-09 1.70619e-16 0 -1.59127e-09 0 0)
(1.59686e-09 1.70941e-16 0 -1.59686e-09 0 0)
(1.56365e-09 1.63814e-16 0 -1.56365e-09 0 0)
(1.5087e-09 1.52875e-16 0 -1.5087e-09 0 0)
(1.44698e-09 1.40809e-16 0 -1.44698e-09 0 0)
(1.38074e-09 1.2787e-16 0 -1.38074e-09 0 0)
(1.30979e-09 1.14961e-16 0 -1.30979e-09 0 0)
(1.2358e-09 1.02672e-16 0 -1.2358e-09 0 0)
(1.16197e-09 9.10391e-17 0 -1.16197e-09 0 0)
(1.08935e-09 7.99924e-17 0 -1.08935e-09 0 0)
(1.01334e-09 6.93275e-17 0 -1.01334e-09 0 0)
(9.51702e-10 6.04451e-17 0 -9.51702e-10 0 0)
(1.05175e-09 7.45186e-17 0 -1.05175e-09 0 0)
(1.63901e-09 1.80521e-16 0 -1.63901e-09 0 0)
(2.568e-09 4.42633e-16 0 -2.568e-09 0 0)
(1.69302e-09 1.92453e-16 0 -1.69302e-09 0 0)
(-2.8108e-09 5.29904e-16 0 2.8108e-09 0 0)
(5.53821e-09 2.05967e-15 0 -5.53821e-09 0 0)
(8.02458e-08 4.32304e-13 0 -8.02458e-08 0 0)
(2.34806e-07 3.70137e-12 0 -2.34806e-07 0 0)
(-4.29084e-08 1.23603e-13 0 4.29084e-08 0 0)
(-5.44106e-07 1.98752e-11 0 5.44106e-07 0 0)
(-1.7067e-07 1.95653e-12 0 1.7067e-07 0 0)
(3.45358e-07 8.01686e-12 0 -3.45358e-07 0 0)
(1.56012e-07 1.63681e-12 0 -1.56012e-07 0 0)
(-3.46304e-08 8.06887e-14 0 3.46304e-08 0 0)
(-1.55946e-08 1.63699e-14 0 1.55946e-08 0 0)
(-3.69633e-09 9.21004e-16 0 3.69633e-09 0 0)
(7.06497e-11 0 0 -7.06497e-11 0 0)
(1.05534e-09 7.50551e-17 0 -1.05534e-09 0 0)
(7.4746e-10 3.73295e-17 0 -7.4746e-10 0 0)
(5.00259e-10 1.64558e-17 0 -5.00259e-10 0 0)
(4.12861e-10 1.22495e-17 0 -4.12861e-10 0 0)
(3.80337e-10 9.66436e-18 0 -3.80337e-10 0 0)
(3.58406e-10 8.49061e-18 0 -3.58406e-10 0 0)
(3.35547e-10 7.7596e-18 0 -3.35547e-10 0 0)
(3.12334e-10 6.20174e-18 0 -3.12334e-10 0 0)
(2.90391e-10 5.13753e-18 0 -2.90391e-10 0 0)
(2.70222e-10 5.46911e-18 0 -2.70222e-10 0 0)
(2.51726e-10 4.98788e-18 0 -2.51726e-10 0 0)
(2.34691e-10 3.53638e-18 0 -2.34691e-10 0 0)
(2.18989e-10 3.28923e-18 0 -2.18989e-10 0 0)
(2.04515e-10 2.99553e-18 0 -2.04515e-10 0 0)
(1.91141e-10 2.12085e-18 0 -1.91141e-10 0 0)
(1.78769e-10 2.81422e-18 0 -1.78769e-10 0 0)
(1.67331e-10 1.79167e-18 0 -1.67331e-10 0 0)
(1.56737e-10 1.9003e-18 0 -1.56737e-10 0 0)
(1.4693e-10 1.34313e-18 0 -1.4693e-10 0 0)
(1.37839e-10 1.42341e-18 0 -1.37839e-10 0 0)
(1.29397e-10 7.53948e-19 0 -1.29397e-10 0 0)
(1.21562e-10 7.9839e-19 0 -1.21562e-10 0 0)
(1.14291e-10 1.2677e-18 0 -1.14291e-10 0 0)
(1.07525e-10 8.94287e-19 0 -1.07525e-10 0 0)
(1.01222e-10 9.45958e-19 0 -1.01222e-10 0 0)
(9.53755e-11 1.00026e-18 0 -9.53755e-11 0 0)
(8.99208e-11 5.28662e-19 0 -8.99208e-11 0 0)
(8.48242e-11 5.58633e-19 0 -8.48242e-11 0 0)
(8.00851e-11 5.90109e-19 0 -8.00851e-11 0 0)
(7.56668e-11 6.23158e-19 0 -7.56668e-11 0 0)
(7.15335e-11 0 0 -7.15335e-11 0 0)
(6.76668e-11 0 0 -6.76668e-11 0 0)
(6.40632e-11 0 0 -6.40632e-11 0 0)
(6.069e-11 0 0 -6.069e-11 0 0)
(5.75423e-11 0 0 -5.75423e-11 0 0)
(5.45905e-11 0 0 -5.45905e-11 0 0)
(5.17864e-11 0 0 -5.17864e-11 0 0)
(4.92238e-11 0 0 -4.92238e-11 0 0)
(4.68192e-11 0 0 -4.68192e-11 0 0)
(4.45076e-11 0 0 -4.45076e-11 0 0)
(4.23895e-11 0 0 -4.23895e-11 0 0)
(4.0359e-11 0 0 -4.0359e-11 0 0)
(3.8487e-11 0 0 -3.8487e-11 0 0)
(3.67598e-11 0 0 -3.67598e-11 0 0)
(3.50462e-11 0 0 -3.50462e-11 0 0)
(3.35081e-11 0 0 -3.35081e-11 0 0)
(3.20994e-11 0 0 -3.20994e-11 0 0)
(3.06533e-11 0 0 -3.06533e-11 0 0)
(2.93461e-11 0 0 -2.93461e-11 0 0)
(2.82206e-11 0 0 -2.82206e-11 0 0)
(2.7042e-11 0 0 -2.7042e-11 0 0)
(2.59435e-11 0 0 -2.59435e-11 0 0)
(2.49803e-11 0 0 -2.49803e-11 0 0)
(2.40089e-11 0 0 -2.40089e-11 0 0)
(2.31366e-11 0 0 -2.31366e-11 0 0)
(2.23033e-11 0 0 -2.23033e-11 0 0)
(2.15317e-11 0 0 -2.15317e-11 0 0)
(2.08232e-11 0 0 -2.08232e-11 0 0)
(2.00853e-11 0 0 -2.00853e-11 0 0)
(1.94752e-11 0 0 -1.94752e-11 0 0)
(1.89111e-11 0 0 -1.89111e-11 0 0)
(1.83314e-11 0 0 -1.83314e-11 0 0)
(1.7793e-11 0 0 -1.7793e-11 0 0)
(1.73195e-11 0 0 -1.73195e-11 0 0)
(1.69095e-11 0 0 -1.69095e-11 0 0)
(1.64545e-11 0 0 -1.64545e-11 0 0)
(1.60499e-11 0 0 -1.60499e-11 0 0)
(1.57479e-11 0 0 -1.57479e-11 0 0)
(1.54006e-11 0 0 -1.54006e-11 0 0)
(1.5035e-11 0 0 -1.5035e-11 0 0)
(1.47922e-11 0 0 -1.47922e-11 0 0)
(1.45501e-11 0 0 -1.45501e-11 0 0)
(1.4299e-11 0 0 -1.4299e-11 0 0)
(1.41082e-11 0 0 -1.41082e-11 0 0)
(1.35689e-11 0 0 -1.35689e-11 0 0)
(1.16963e-11 0 0 -1.16963e-11 0 0)
(8.32574e-12 0 0 -8.32574e-12 0 0)
(1.02429e-11 0 0 -1.02429e-11 0 0)
(3.67744e-11 0 0 -3.67744e-11 0 0)
(1.66689e-10 1.78147e-18 0 -1.66689e-10 0 0)
(3.37738e-10 7.91863e-18 0 -3.37738e-10 0 0)
(-5.28373e-10 1.8998e-17 0 5.28373e-10 0 0)
(-1.99993e-09 2.68956e-16 0 1.99993e-09 0 0)
(-1.05031e-08 7.41133e-15 0 1.05031e-08 0 0)
(-3.37245e-08 7.64006e-14 0 3.37245e-08 0 0)
(1.51217e-07 1.53582e-12 0 -1.51217e-07 0 0)
(1.34321e-07 1.21164e-12 0 -1.34321e-07 0 0)
(-2.59302e-07 4.51398e-12 0 2.59302e-07 0 0)
(-1.56906e-07 1.65282e-12 0 1.56906e-07 0 0)
(1.02966e-07 7.11758e-13 0 -1.02966e-07 0 0)
(5.12511e-08 1.7634e-13 0 -5.12511e-08 0 0)
(9.45468e-09 6.00151e-15 0 -9.45468e-09 0 0)
(1.18912e-09 9.51378e-17 0 -1.18912e-09 0 0)
(2.54082e-09 4.32844e-16 0 -2.54082e-09 0 0)
(2.43569e-09 3.9829e-16 0 -2.43569e-09 0 0)
(1.1102e-09 8.28734e-17 0 -1.1102e-09 0 0)
(-9.16768e-11 9.29113e-19 0 9.16768e-11 0 0)
(-9.34055e-10 5.8128e-17 0 9.34055e-10 0 0)
(-1.57672e-09 1.67201e-16 0 1.57672e-09 0 0)
(-2.10718e-09 2.97664e-16 0 2.10718e-09 0 0)
(-2.51478e-09 4.24263e-16 0 2.51478e-09 0 0)
(-2.74258e-09 5.05162e-16 0 2.74258e-09 0 0)
(-2.7015e-09 4.90115e-16 0 2.7015e-09 0 0)
(-2.26885e-09 3.45502e-16 0 2.26885e-09 0 0)
(-1.28549e-09 1.10937e-16 0 1.28549e-09 0 0)
(4.94234e-10 1.63669e-17 0 -4.94234e-10 0 0)
(3.55136e-09 8.47172e-16 0 -3.55136e-09 0 0)
(8.53818e-09 4.89448e-15 0 -8.53818e-09 0 0)
(1.49327e-08 1.49698e-14 0 -1.49327e-08 0 0)
(1.88576e-08 2.38739e-14 0 -1.88576e-08 0 0)
(1.99539e-08 2.67304e-14 0 -1.99539e-08 0 0)
(5.35193e-08 1.92294e-13 0 -5.35193e-08 0 0)
(1.96441e-07 2.59065e-12 0 -1.96441e-07 0 0)
(3.0761e-07 6.3525e-12 0 -3.0761e-07 0 0)
(-5.56496e-07 2.07907e-11 0 5.56496e-07 0 0)
(-7.85818e-07 4.14617e-11 0 7.85818e-07 0 0)
(5.03708e-07 1.70552e-11 0 -5.03708e-07 0 0)
(4.79198e-07 1.54431e-11 0 -4.79198e-07 0 0)
(-1.26647e-07 1.07931e-12 0 1.26647e-07 0 0)
(-3.3259e-08 7.4479e-14 0 3.3259e-08 0 0)
(-5.71638e-09 2.20128e-15 0 5.71638e-09 0 0)
(-1.6122e-09 1.75152e-16 0 1.6122e-09 0 0)
(1.21584e-09 9.9635e-17 0 -1.21584e-09 0 0)
(4.85881e-10 1.57444e-17 0 -4.85881e-10 0 0)
(5.19951e-11 0 0 -5.19951e-11 0 0)
(-1.70028e-11 0 0 1.70028e-11 0 0)
(-1.95466e-11 0 0 1.95466e-11 0 0)
(-7.77027e-12 0 0 7.77027e-12 0 0)
(-2.41335e-12 0 0 2.41335e-12 0 0)
(-1.69572e-12 0 0 1.69572e-12 0 0)
(-1.96847e-12 0 0 1.96847e-12 0 0)
(-2.33779e-12 0 0 2.33779e-12 0 0)
(-2.71331e-12 0 0 2.71331e-12 0 0)
(-3.14666e-12 0 0 3.14666e-12 0 0)
(-3.66594e-12 0 0 3.66594e-12 0 0)
(-4.2667e-12 0 0 4.2667e-12 0 0)
(-4.93254e-12 0 0 4.93254e-12 0 0)
(-5.65039e-12 0 0 5.65039e-12 0 0)
(-6.41097e-12 0 0 6.41097e-12 0 0)
(-7.20416e-12 0 0 7.20416e-12 0 0)
(-8.02321e-12 0 0 8.02321e-12 0 0)
(-8.86245e-12 0 0 8.86245e-12 0 0)
(-9.71688e-12 0 0 9.71688e-12 0 0)
(-1.05827e-11 0 0 1.05827e-11 0 0)
(-1.14587e-11 0 0 1.14587e-11 0 0)
(-1.23413e-11 0 0 1.23413e-11 0 0)
(-1.32264e-11 0 0 1.32264e-11 0 0)
(-1.41152e-11 0 0 1.41152e-11 0 0)
(-1.50065e-11 0 0 1.50065e-11 0 0)
(-1.58985e-11 0 0 1.58985e-11 0 0)
(-1.67923e-11 0 0 1.67923e-11 0 0)
(-1.76848e-11 0 0 1.76848e-11 0 0)
(-1.85749e-11 0 0 1.85749e-11 0 0)
(-1.94645e-11 0 0 1.94645e-11 0 0)
(-2.03525e-11 0 0 2.03525e-11 0 0)
(-2.12368e-11 0 0 2.12368e-11 0 0)
(-2.2117e-11 0 0 2.2117e-11 0 0)
(-2.29923e-11 0 0 2.29923e-11 0 0)
(-2.38618e-11 0 0 2.38618e-11 0 0)
(-2.47251e-11 0 0 2.47251e-11 0 0)
(-2.55805e-11 0 0 2.55805e-11 0 0)
(-2.64259e-11 0 0 2.64259e-11 0 0)
(-2.72625e-11 0 0 2.72625e-11 0 0)
(-2.80869e-11 0 0 2.80869e-11 0 0)
(-2.88961e-11 0 0 2.88961e-11 0 0)
(-2.96915e-11 0 0 2.96915e-11 0 0)
(-3.04699e-11 0 0 3.04699e-11 0 0)
(-3.12294e-11 0 0 3.12294e-11 0 0)
(-3.19679e-11 0 0 3.19679e-11 0 0)
(-3.26854e-11 0 0 3.26854e-11 0 0)
(-3.33768e-11 0 0 3.33768e-11 0 0)
(-3.40388e-11 0 0 3.40388e-11 0 0)
(-3.46736e-11 0 0 3.46736e-11 0 0)
(-3.52758e-11 0 0 3.52758e-11 0 0)
(-3.58428e-11 0 0 3.58428e-11 0 0)
(-3.63726e-11 0 0 3.63726e-11 0 0)
(-3.6862e-11 0 0 3.6862e-11 0 0)
(-3.73097e-11 0 0 3.73097e-11 0 0)
(-3.77111e-11 0 0 3.77111e-11 0 0)
(-3.80651e-11 0 0 3.80651e-11 0 0)
(-3.8367e-11 0 0 3.8367e-11 0 0)
(-3.86132e-11 0 0 3.86132e-11 0 0)
(-3.88035e-11 0 0 3.88035e-11 0 0)
(-3.89331e-11 0 0 3.89331e-11 0 0)
(-3.89997e-11 0 0 3.89997e-11 0 0)
(-3.90012e-11 0 0 3.90012e-11 0 0)
(-3.89323e-11 0 0 3.89323e-11 0 0)
(-3.87902e-11 0 0 3.87902e-11 0 0)
(-3.85754e-11 0 0 3.85754e-11 0 0)
(-3.8284e-11 0 0 3.8284e-11 0 0)
(-3.79107e-11 0 0 3.79107e-11 0 0)
(-3.74534e-11 0 0 3.74534e-11 0 0)
(-3.691e-11 0 0 3.691e-11 0 0)
(-3.62802e-11 0 0 3.62802e-11 0 0)
(-3.5568e-11 0 0 3.5568e-11 0 0)
(-3.47672e-11 0 0 3.47672e-11 0 0)
(-3.3864e-11 0 0 3.3864e-11 0 0)
(-3.28539e-11 0 0 3.28539e-11 0 0)
(-3.17416e-11 0 0 3.17416e-11 0 0)
(-3.05357e-11 0 0 3.05357e-11 0 0)
(-2.92385e-11 0 0 2.92385e-11 0 0)
(-2.78428e-11 0 0 2.78428e-11 0 0)
(-2.63454e-11 0 0 2.63454e-11 0 0)
(-2.47479e-11 0 0 2.47479e-11 0 0)
(-2.30494e-11 0 0 2.30494e-11 0 0)
(-2.12501e-11 0 0 2.12501e-11 0 0)
(-1.93534e-11 0 0 1.93534e-11 0 0)
(-1.73602e-11 0 0 1.73602e-11 0 0)
(-1.52704e-11 0 0 1.52704e-11 0 0)
(-1.30873e-11 0 0 1.30873e-11 0 0)
(-1.08148e-11 0 0 1.08148e-11 0 0)
(-8.45448e-12 0 0 8.45448e-12 0 0)
(-6.00943e-12 0 0 6.00943e-12 0 0)
(-3.48393e-12 0 0 3.48393e-12 0 0)
(-8.83092e-13 0 0 8.83092e-13 0 0)
(1.78797e-12 0 0 -1.78797e-12 0 0)
(4.52423e-12 0 0 -4.52423e-12 0 0)
(7.31837e-12 0 0 -7.31837e-12 0 0)
(1.01646e-11 0 0 -1.01646e-11 0 0)
(1.30575e-11 0 0 -1.30575e-11 0 0)
(1.59896e-11 0 0 -1.59896e-11 0 0)
(1.8952e-11 0 0 -1.8952e-11 0 0)
(2.19359e-11 0 0 -2.19359e-11 0 0)
(2.49339e-11 0 0 -2.49339e-11 0 0)
(2.79364e-11 0 0 -2.79364e-11 0 0)
(3.09345e-11 4.05542e-19 0 -3.09345e-11 0 0)
(3.39209e-11 2.07008e-19 0 -3.39209e-11 0 0)
(3.68832e-11 2.11301e-19 0 -3.68832e-11 0 0)
(3.98109e-11 2.1565e-19 0 -3.98109e-11 0 0)
(4.26954e-11 2.20054e-19 0 -4.26954e-11 0 0)
(4.55256e-11 2.24513e-19 0 -4.55256e-11 0 0)
(4.82923e-11 2.29026e-19 0 -4.82923e-11 0 0)
(5.09841e-11 4.67183e-19 0 -5.09841e-11 0 0)
(5.35894e-11 4.76419e-19 0 -5.35894e-11 0 0)
(5.60987e-11 4.85758e-19 0 -5.60987e-11 0 0)
(5.85011e-11 4.95197e-19 0 -5.85011e-11 0 0)
(6.07869e-11 7.57104e-19 0 -6.07869e-11 0 0)
(6.29469e-11 1.02874e-18 0 -6.29469e-11 0 0)
(6.49701e-11 7.8615e-19 0 -6.49701e-11 0 0)
(6.68457e-11 8.00881e-19 0 -6.68457e-11 0 0)
(6.85668e-11 8.15746e-19 0 -6.85668e-11 0 0)
(7.01271e-11 1.10765e-18 0 -7.01271e-11 0 0)
(7.15169e-11 1.12781e-18 0 -7.15169e-11 0 0)
(7.27278e-11 1.14813e-18 0 -7.27278e-11 0 0)
(7.3754e-11 1.02252e-18 0 -7.3754e-11 0 0)
(7.45912e-11 1.18921e-18 0 -7.45912e-11 0 0)
(7.52338e-11 1.20997e-18 0 -7.52338e-11 0 0)
(7.5678e-11 1.38471e-18 0 -7.5678e-11 0 0)
(7.59211e-11 1.40835e-18 0 -7.59211e-11 0 0)
(7.59601e-11 1.43211e-18 0 -7.59601e-11 0 0)
(7.57946e-11 1.45599e-18 0 -7.57946e-11 0 0)
(7.54248e-11 1.47998e-18 0 -7.54248e-11 0 0)
(7.48511e-11 1.50407e-18 0 -7.48511e-11 0 0)
(7.40762e-11 1.52824e-18 0 -7.40762e-11 0 0)
(7.31033e-11 1.72499e-18 0 -7.31033e-11 0 0)
(7.19366e-11 1.5768e-18 0 -7.19366e-11 0 0)
(7.05817e-11 1.69012e-18 0 -7.05817e-11 0 0)
(6.90448e-11 1.62557e-18 0 -6.90448e-11 0 0)
(6.73333e-11 1.65e-18 0 -6.73333e-11 0 0)
(6.54564e-11 1.67444e-18 0 -6.54564e-11 0 0)
(6.34239e-11 1.51011e-18 0 -6.34239e-11 0 0)
(6.12455e-11 1.53182e-18 0 -6.12455e-11 0 0)
(5.89331e-11 1.45641e-18 0 -5.89331e-11 0 0)
(5.64993e-11 1.37826e-18 0 -5.64993e-11 0 0)
(5.39567e-11 1.29736e-18 0 -5.39567e-11 0 0)
(5.1319e-11 1.31485e-18 0 -5.1319e-11 0 0)
(4.86005e-11 1.22979e-18 0 -4.86005e-11 0 0)
(4.5816e-11 1.1939e-18 0 -4.5816e-11 0 0)
(4.29805e-11 9.98878e-19 0 -4.29805e-11 0 0)
(4.01092e-11 9.58188e-19 0 -4.01092e-11 0 0)
(3.72174e-11 8.62216e-19 0 -3.72174e-11 0 0)
(3.43217e-11 8.18095e-19 0 -3.43217e-11 0 0)
(3.14364e-11 7.17412e-19 0 -3.14364e-11 0 0)
(2.85774e-11 6.14084e-19 0 -2.85774e-11 0 0)
(2.57594e-11 5.08139e-19 0 -2.57594e-11 0 0)
(2.29969e-11 4.56699e-19 0 -2.29969e-11 0 0)
(2.03039e-11 4.03954e-19 0 -2.03039e-11 0 0)
(1.76934e-11 2.91602e-19 0 -1.76934e-11 0 0)
(1.51779e-11 2.357e-19 0 -1.51779e-11 0 0)
(1.27693e-11 1.78564e-19 0 -1.27693e-11 0 0)
(1.04772e-11 1.20217e-19 0 -1.04772e-11 0 0)
(8.31255e-12 9.10287e-20 0 -8.31255e-12 0 0)
(6.28231e-12 6.12533e-20 0 -6.28231e-12 0 0)
(4.39405e-12 3.09052e-20 0 -4.39405e-12 0 0)
(2.65361e-12 0 0 -2.65361e-12 0 0)
(1.06546e-12 0 0 -1.06546e-12 0 0)
(-3.67423e-13 0 0 3.67423e-13 0 0)
(-1.64324e-12 0 0 1.64324e-12 0 0)
(-2.7619e-12 1.61054e-20 0 2.7619e-12 0 0)
(-3.7241e-12 3.24528e-20 0 3.7241e-12 0 0)
(-4.53268e-12 6.53761e-20 0 4.53268e-12 0 0)
(-5.19115e-12 9.05195e-20 0 5.19115e-12 0 0)
(-5.70463e-12 1.24264e-19 0 5.70463e-12 0 0)
(-6.07933e-12 1.66752e-19 0 6.07933e-12 0 0)
(-6.32261e-12 2.09725e-19 0 6.32261e-12 0 0)
(-6.44321e-12 2.44715e-19 0 6.44321e-12 0 0)
(-6.44997e-12 2.88519e-19 0 6.44997e-12 0 0)
(-6.35353e-12 3.24186e-19 0 6.35353e-12 0 0)
(-6.16456e-12 3.64413e-19 0 6.16456e-12 0 0)
(-5.89463e-12 3.96313e-19 0 5.89463e-12 0 0)
(-5.55564e-12 4.17574e-19 0 5.55564e-12 0 0)
(-5.15983e-12 4.38897e-19 0 5.15983e-12 0 0)
(-4.71961e-12 4.53721e-19 0 4.71961e-12 0 0)
(-4.24746e-12 4.63051e-19 0 4.24746e-12 0 0)
(-3.75606e-12 4.63524e-19 0 3.75606e-12 0 0)
(-3.25812e-12 4.56153e-19 0 3.25812e-12 0 0)
(-2.76394e-12 4.4308e-19 0 2.76394e-12 0 0)
(-2.27702e-12 4.18178e-19 0 2.27702e-12 0 0)
(-1.80303e-12 3.81377e-19 0 1.80303e-12 0 0)
(-1.3905e-12 3.47925e-19 0 1.3905e-12 0 0)
(-1.12857e-12 3.77491e-19 0 1.12857e-12 0 0)
(-9.1094e-13 4.48052e-19 0 9.1094e-13 0 0)
(-2.54327e-13 7.40501e-20 0 2.54327e-13 0 0)
(7.46998e-13 1.74625e-18 0 -7.46998e-13 0 0)
(1.60322e-13 3.69577e-19 0 -1.60322e-13 0 0)
(-7.54725e-14 2.19113e-18 0 7.54725e-14 0 0)
)
;

boundaryField
{
    topWall
    {
        type            symmetry;
    }
    bottomWall
    {
        type            calculated;
        value           uniform (-8.12516e-21 0 0 8.12516e-21 0 0);
    }
    inlet
    {
        type            cyclic;
    }
    outlet
    {
        type            cyclic;
    }
    frontAndBack
    {
        type            empty;
    }
}


// ************************************************************************* //
