/*--------------------------------*- C++ -*----------------------------------*\
| =========                 |                                                 |
| \\      /  F ield         | OpenFOAM: The Open Source CFD Toolbox           |
|  \\    /   O peration     | Version:  2212                                  |
|   \\  /    A nd           | Website:  www.openfoam.com                      |
|    \\/     M anipulation  |                                                 |
\*---------------------------------------------------------------------------*/
FoamFile
{
    version     2.0;
    format      ascii;
    arch        "LSB;label=32;scalar=64";
    class       volVectorField;
    location    "43892";
    object      U;
}
// * * * * * * * * * * * * * * * * * * * * * * * * * * * * * * * * * * * * * //

dimensions      [0 1 -1 0 0 0 0];

internalField   nonuniform List<vector> 
400
(
(0.112877 -4.54737e-10 0)
(0.339857 -1.40859e-09 0)
(0.56939 -1.31241e-09 0)
(0.801503 -1.70803e-09 0)
(1.03622 -3.27906e-09 0)
(1.27357 -8.01052e-09 0)
(1.51356 -2.13078e-08 0)
(1.75619 -5.70559e-08 0)
(2.00145 -1.47158e-07 0)
(2.2493 -3.55535e-07 0)
(2.49962 -7.91569e-07 0)
(2.75228 -1.6093e-06 0)
(3.00706 -2.97074e-06 0)
(3.26364 -4.9557e-06 0)
(3.5216 -7.42947e-06 0)
(3.78044 -9.93158e-06 0)
(4.03952 -1.16889e-05 0)
(4.29815 -1.18291e-05 0)
(4.55552 -9.75176e-06 0)
(4.81083 -5.47528e-06 0)
(5.06324 2.64102e-07 0)
(5.31198 6.25034e-06 0)
(5.55633 1.12415e-05 0)
(5.79567 1.43915e-05 0)
(6.0295 1.54445e-05 0)
(6.25743 1.46748e-05 0)
(6.47921 1.26758e-05 0)
(6.69467 1.00825e-05 0)
(6.90376 7.19074e-06 0)
(7.1065 3.66014e-06 0)
(7.30298 -2.75307e-07 0)
(7.49332 2.82522e-06 0)
(7.67772 3.95554e-05 0)
(7.85635 1.48869e-05 0)
(8.02961 -4.61662e-05 0)
(8.19796 -2.99237e-05 0)
(8.36164 -2.47533e-06 0)
(8.52082 2.07079e-06 0)
(8.67563 4.71339e-07 0)
(8.82623 -3.96938e-07 0)
(8.97276 -4.32368e-07 0)
(9.11538 -3.49768e-07 0)
(9.25422 -3.278e-07 0)
(9.38943 -3.30814e-07 0)
(9.52116 -3.31026e-07 0)
(9.64953 -3.26134e-07 0)
(9.77469 -3.15867e-07 0)
(9.89676 -2.92266e-07 0)
(10.0159 -2.55191e-07 0)
(10.1321 -2.63568e-07 0)
(10.2457 -2.91043e-07 0)
(10.3566 -2.71919e-07 0)
(10.465 -2.42256e-07 0)
(10.571 -2.24232e-07 0)
(10.6747 -2.12404e-07 0)
(10.7762 -2.01652e-07 0)
(10.8756 -1.90945e-07 0)
(10.9729 -1.80567e-07 0)
(11.0683 -1.70719e-07 0)
(11.1618 -1.6144e-07 0)
(11.2535 -1.52734e-07 0)
(11.3434 -1.44607e-07 0)
(11.4317 -1.37066e-07 0)
(11.5183 -1.30096e-07 0)
(11.6035 -1.23667e-07 0)
(11.6871 -1.17757e-07 0)
(11.7693 -1.12388e-07 0)
(11.8501 -1.07343e-07 0)
(11.9296 -1.01062e-07 0)
(12.0078 -8.99626e-08 0)
(12.0848 -7.42815e-08 0)
(12.1606 -7.26827e-08 0)
(12.2352 -1.02846e-07 0)
(12.3087 -1.69342e-08 0)
(12.3811 6.86975e-07 0)
(12.4525 2.2554e-06 0)
(12.5229 2.57861e-07 0)
(12.5924 -2.86035e-06 0)
(12.661 -1.29767e-06 0)
(12.7287 3.04433e-07 0)
(12.7956 1.04705e-07 0)
(12.8617 -5.05005e-09 0)
(12.9271 -3.28476e-08 0)
(12.9917 -3.72694e-08 0)
(13.0556 -3.21809e-08 0)
(13.1188 -2.82358e-08 0)
(13.1813 -2.58539e-08 0)
(13.2432 -2.40419e-08 0)
(13.3044 -2.2426e-08 0)
(13.365 -2.09148e-08 0)
(13.425 -1.95078e-08 0)
(13.4844 -1.82089e-08 0)
(13.5432 -1.70127e-08 0)
(13.6015 -1.59104e-08 0)
(13.6592 -1.48931e-08 0)
(13.7164 -1.39534e-08 0)
(13.7731 -1.30846e-08 0)
(13.8293 -1.22804e-08 0)
(13.8851 -1.15353e-08 0)
(13.9403 -1.08444e-08 0)
(13.9951 -1.02032e-08 0)
(14.0495 -9.60757e-09 0)
(14.1034 -9.05384e-09 0)
(14.1569 -8.53851e-09 0)
(14.21 -8.0586e-09 0)
(14.2626 -7.61126e-09 0)
(14.3149 -7.19394e-09 0)
(14.3668 -6.80426e-09 0)
(14.4183 -6.44018e-09 0)
(14.4695 -6.0997e-09 0)
(14.5203 -5.78094e-09 0)
(14.5708 -5.48243e-09 0)
(14.6209 -5.20259e-09 0)
(14.6707 -4.94003e-09 0)
(14.7201 -4.69348e-09 0)
(14.7692 -4.46185e-09 0)
(14.8181 -4.24403e-09 0)
(14.8666 -4.039e-09 0)
(14.9148 -3.84593e-09 0)
(14.9628 -3.66385e-09 0)
(15.0104 -3.49216e-09 0)
(15.0578 -3.33025e-09 0)
(15.1049 -3.17692e-09 0)
(15.1518 -3.03214e-09 0)
(15.1983 -2.89514e-09 0)
(15.2447 -2.76527e-09 0)
(15.2908 -2.64247e-09 0)
(15.3366 -2.52564e-09 0)
(15.3822 -2.41482e-09 0)
(15.4275 -2.30975e-09 0)
(15.4727 -2.2095e-09 0)
(15.5176 -2.11408e-09 0)
(15.5623 -2.0236e-09 0)
(15.6067 -1.93701e-09 0)
(15.651 -1.85416e-09 0)
(15.695 -1.77545e-09 0)
(15.7389 -1.69992e-09 0)
(15.7825 -1.62764e-09 0)
(15.826 -1.55853e-09 0)
(15.8692 -1.49203e-09 0)
(15.9123 -1.42841e-09 0)
(15.9552 -1.36699e-09 0)
(15.9978 -1.30803e-09 0)
(16.0404 -1.25139e-09 0)
(16.0827 -1.19643e-09 0)
(16.1249 -1.1435e-09 0)
(16.1668 -1.0923e-09 0)
(16.2087 -1.04286e-09 0)
(16.2503 -9.94746e-10 0)
(16.2918 -9.48008e-10 0)
(16.3332 -9.02831e-10 0)
(16.3743 -8.58715e-10 0)
(16.4154 -8.1557e-10 0)
(16.4562 -7.73721e-10 0)
(16.4969 -7.32919e-10 0)
(16.5375 -6.92719e-10 0)
(16.5779 -6.53552e-10 0)
(16.6182 -6.15017e-10 0)
(16.6584 -5.77176e-10 0)
(16.6984 -5.41844e-10 0)
(16.7382 -5.14369e-10 0)
(16.778 -4.97327e-10 0)
(16.8175 -4.59605e-10 0)
(16.857 -3.01146e-10 0)
(16.8963 4.26628e-10 0)
(16.9355 1.48346e-09 0)
(16.9746 -2.38112e-09 0)
(17.0135 -9.0162e-09 0)
(17.0523 -5.74935e-08 0)
(17.091 -1.85064e-07 0)
(17.1296 7.33259e-07 0)
(17.1681 5.03022e-07 0)
(17.2064 -6.08441e-07 0)
(17.2446 -2.9521e-07 0)
(17.2827 -8.11764e-08 0)
(17.3208 -3.41013e-08 0)
(17.3587 -3.32138e-08 0)
(17.3966 -2.80249e-08 0)
(17.4344 -2.02989e-08 0)
(17.472 -1.57054e-08 0)
(17.5096 -1.47093e-08 0)
(17.5471 -1.61819e-08 0)
(17.5845 -1.94175e-08 0)
(17.6219 -2.41017e-08 0)
(17.6591 -2.99716e-08 0)
(17.6962 -3.66623e-08 0)
(17.7333 -4.36312e-08 0)
(17.7702 -5.00767e-08 0)
(17.8071 -5.48588e-08 0)
(17.8438 -5.64061e-08 0)
(17.8804 -5.23935e-08 0)
(17.9169 -3.89261e-08 0)
(17.9532 -1.05623e-08 0)
(17.9894 3.38969e-08 0)
(18.0255 8.09218e-08 0)
(18.0613 1.30272e-07 0)
(18.0971 3.39097e-07 0)
(18.1326 1.07298e-06 0)
(18.168 1.8033e-06 0)
(18.2032 -1.5873e-06 0)
(18.2365 -1.87217e-06 0)
(18.268 5.43338e-07 0)
(18.299 1.40737e-07 0)
(18.3296 1.8093e-08 0)
(18.3598 4.53207e-09 0)
(18.3896 -5.02669e-09 0)
(18.4191 -1.90849e-09 0)
(18.4481 -2.28426e-10 0)
(18.4768 -1.39279e-11 0)
(18.5051 -2.8085e-11 0)
(18.5331 -7.86749e-11 0)
(18.5607 -1.01659e-10 0)
(18.588 -1.07588e-10 0)
(18.615 -1.10537e-10 0)
(18.6416 -1.13757e-10 0)
(18.6679 -1.1762e-10 0)
(18.6939 -1.22076e-10 0)
(18.7195 -1.27171e-10 0)
(18.7449 -1.33035e-10 0)
(18.7699 -1.39804e-10 0)
(18.7947 -1.47586e-10 0)
(18.8192 -1.56453e-10 0)
(18.8433 -1.66464e-10 0)
(18.8672 -1.77657e-10 0)
(18.8909 -1.90055e-10 0)
(18.9142 -2.03673e-10 0)
(18.9373 -2.18515e-10 0)
(18.9601 -2.34578e-10 0)
(18.9827 -2.51857e-10 0)
(19.005 -2.70344e-10 0)
(19.027 -2.90023e-10 0)
(19.0488 -3.10877e-10 0)
(19.0703 -3.32893e-10 0)
(19.0916 -3.56051e-10 0)
(19.1127 -3.80335e-10 0)
(19.1335 -4.05729e-10 0)
(19.1541 -4.32211e-10 0)
(19.1745 -4.5976e-10 0)
(19.1947 -4.88363e-10 0)
(19.2146 -5.17998e-10 0)
(19.2343 -5.48645e-10 0)
(19.2538 -5.80285e-10 0)
(19.273 -6.12895e-10 0)
(19.2921 -6.46455e-10 0)
(19.3109 -6.80945e-10 0)
(19.3296 -7.1634e-10 0)
(19.348 -7.52616e-10 0)
(19.3662 -7.89753e-10 0)
(19.3843 -8.27718e-10 0)
(19.4021 -8.66488e-10 0)
(19.4197 -9.06034e-10 0)
(19.4372 -9.46325e-10 0)
(19.4544 -9.8733e-10 0)
(19.4715 -1.02902e-09 0)
(19.4884 -1.07135e-09 0)
(19.5051 -1.11429e-09 0)
(19.5216 -1.1578e-09 0)
(19.538 -1.20184e-09 0)
(19.5541 -1.24637e-09 0)
(19.5701 -1.29134e-09 0)
(19.5859 -1.3367e-09 0)
(19.6015 -1.3824e-09 0)
(19.617 -1.4284e-09 0)
(19.6323 -1.47463e-09 0)
(19.6474 -1.52105e-09 0)
(19.6624 -1.56758e-09 0)
(19.6772 -1.61417e-09 0)
(19.6918 -1.66076e-09 0)
(19.7063 -1.70728e-09 0)
(19.7206 -1.75365e-09 0)
(19.7347 -1.79982e-09 0)
(19.7487 -1.84569e-09 0)
(19.7626 -1.8912e-09 0)
(19.7763 -1.93626e-09 0)
(19.7898 -1.9808e-09 0)
(19.8032 -2.02472e-09 0)
(19.8164 -2.06795e-09 0)
(19.8295 -2.11039e-09 0)
(19.8424 -2.15195e-09 0)
(19.8552 -2.19255e-09 0)
(19.8678 -2.2321e-09 0)
(19.8803 -2.27048e-09 0)
(19.8927 -2.30757e-09 0)
(19.9049 -2.34329e-09 0)
(19.917 -2.37753e-09 0)
(19.9289 -2.41021e-09 0)
(19.9407 -2.44121e-09 0)
(19.9524 -2.47042e-09 0)
(19.9639 -2.49775e-09 0)
(19.9753 -2.52308e-09 0)
(19.9865 -2.5463e-09 0)
(19.9976 -2.5673e-09 0)
(20.0086 -2.58599e-09 0)
(20.0195 -2.60225e-09 0)
(20.0302 -2.61597e-09 0)
(20.0408 -2.62705e-09 0)
(20.0513 -2.63539e-09 0)
(20.0616 -2.64088e-09 0)
(20.0718 -2.64343e-09 0)
(20.0819 -2.64292e-09 0)
(20.0919 -2.63928e-09 0)
(20.1017 -2.63241e-09 0)
(20.1114 -2.62222e-09 0)
(20.121 -2.60862e-09 0)
(20.1305 -2.59154e-09 0)
(20.1398 -2.57091e-09 0)
(20.149 -2.54665e-09 0)
(20.1581 -2.51869e-09 0)
(20.1671 -2.487e-09 0)
(20.176 -2.4515e-09 0)
(20.1848 -2.41216e-09 0)
(20.1934 -2.36895e-09 0)
(20.2019 -2.32182e-09 0)
(20.2103 -2.27077e-09 0)
(20.2186 -2.21577e-09 0)
(20.2268 -2.15684e-09 0)
(20.2348 -2.09396e-09 0)
(20.2428 -2.02716e-09 0)
(20.2506 -1.95647e-09 0)
(20.2584 -1.88192e-09 0)
(20.266 -1.80355e-09 0)
(20.2735 -1.72144e-09 0)
(20.2809 -1.63564e-09 0)
(20.2882 -1.54623e-09 0)
(20.2953 -1.45333e-09 0)
(20.3024 -1.35702e-09 0)
(20.3094 -1.25742e-09 0)
(20.3162 -1.15467e-09 0)
(20.323 -1.0489e-09 0)
(20.3296 -9.40282e-10 0)
(20.3362 -8.28966e-10 0)
(20.3426 -7.15136e-10 0)
(20.3489 -5.98982e-10 0)
(20.3551 -4.80706e-10 0)
(20.3613 -3.60523e-10 0)
(20.3673 -2.38656e-10 0)
(20.3732 -1.15343e-10 0)
(20.379 9.1688e-12 0)
(20.3847 1.34625e-10 0)
(20.3903 2.60758e-10 0)
(20.3959 3.87293e-10 0)
(20.4013 5.13946e-10 0)
(20.4066 6.40426e-10 0)
(20.4118 7.66433e-10 0)
(20.4169 8.91663e-10 0)
(20.4219 1.01581e-09 0)
(20.4268 1.13855e-09 0)
(20.4317 1.25957e-09 0)
(20.4364 1.37855e-09 0)
(20.441 1.49517e-09 0)
(20.4455 1.60911e-09 0)
(20.45 1.72003e-09 0)
(20.4543 1.82763e-09 0)
(20.4586 1.93158e-09 0)
(20.4627 2.03157e-09 0)
(20.4667 2.12729e-09 0)
(20.4707 2.21843e-09 0)
(20.4746 2.30471e-09 0)
(20.4783 2.38584e-09 0)
(20.482 2.46153e-09 0)
(20.4856 2.53154e-09 0)
(20.4891 2.59559e-09 0)
(20.4925 2.65346e-09 0)
(20.4958 2.70492e-09 0)
(20.499 2.74977e-09 0)
(20.5021 2.7878e-09 0)
(20.5051 2.81885e-09 0)
(20.5081 2.84275e-09 0)
(20.5109 2.85939e-09 0)
(20.5137 2.86863e-09 0)
(20.5163 2.87039e-09 0)
(20.5189 2.8646e-09 0)
(20.5214 2.85121e-09 0)
(20.5238 2.83019e-09 0)
(20.5261 2.80153e-09 0)
(20.5283 2.76527e-09 0)
(20.5304 2.72145e-09 0)
(20.5324 2.67014e-09 0)
(20.5344 2.61143e-09 0)
(20.5362 2.54545e-09 0)
(20.538 2.47234e-09 0)
(20.5397 2.39227e-09 0)
(20.5412 2.30542e-09 0)
(20.5427 2.21202e-09 0)
(20.5441 2.1123e-09 0)
(20.5455 2.00653e-09 0)
(20.5467 1.89498e-09 0)
(20.5478 1.77796e-09 0)
(20.5489 1.65579e-09 0)
(20.5499 1.52877e-09 0)
(20.5507 1.39719e-09 0)
(20.5515 1.26144e-09 0)
(20.5522 1.1227e-09 0)
(20.5528 9.82853e-10 0)
(20.5534 8.37226e-10 0)
(20.5538 6.59835e-10 0)
(20.5542 4.48468e-10 0)
(20.5544 4.80785e-10 0)
(20.5546 1.47639e-09 0)
(20.5547 1.09039e-09 0)
)
;

boundaryField
{
    topWall
    {
        type            symmetry;
    }
    bottomWall
    {
        type            noSlip;
    }
    inlet
    {
        type            cyclic;
    }
    outlet
    {
        type            cyclic;
    }
    frontAndBack
    {
        type            empty;
    }
}


// ************************************************************************* //
