/*--------------------------------*- C++ -*----------------------------------*\
| =========                 |                                                 |
| \\      /  F ield         | OpenFOAM: The Open Source CFD Toolbox           |
|  \\    /   O peration     | Version:  2312                                  |
|   \\  /    A nd           | Website:  www.openfoam.com                      |
|    \\/     M anipulation  |                                                 |
\*---------------------------------------------------------------------------*/
FoamFile
{
    version     2.0;
    format      ascii;
    arch        "LSB;label=32;scalar=64";
    class       volSymmTensorField;
    location    "1919";
    object      bijDelta;
}
// * * * * * * * * * * * * * * * * * * * * * * * * * * * * * * * * * * * * * //

dimensions      [0 0 0 0 0 0 0];

internalField   nonuniform List<symmTensor> 
2304
(
(1.7377e-05 -4.77489e-08 3.02292e-09 1.29976e-10 -4.63087e-09 -1.73771e-05)
(1.76782e-05 -1.3571e-07 1.97814e-09 1.03362e-09 -1.2047e-08 -1.76792e-05)
(1.81382e-05 -2.0704e-07 5.49725e-10 2.35013e-09 -1.54516e-08 -1.81406e-05)
(1.86146e-05 -2.61544e-07 -8.06766e-10 3.66237e-09 -1.52079e-08 -1.86183e-05)
(1.90213e-05 -3.02722e-07 -1.7922e-09 4.80903e-09 -1.28737e-08 -1.90261e-05)
(1.93308e-05 -3.35169e-07 -2.40145e-09 5.8063e-09 -9.87136e-09 -1.93366e-05)
(1.95476e-05 -3.62234e-07 -2.72783e-09 6.71003e-09 -6.94423e-09 -1.95543e-05)
(1.96858e-05 -3.86034e-07 -2.87529e-09 7.56908e-09 -4.30924e-09 -1.96934e-05)
(1.97592e-05 -4.07698e-07 -2.90508e-09 8.41194e-09 -1.94694e-09 -1.97677e-05)
(1.97786e-05 -4.27915e-07 -2.84793e-09 9.25806e-09 2.01013e-10 -1.97878e-05)
(1.97525e-05 -4.4716e-07 -2.71619e-09 1.01226e-08 2.16091e-09 -1.97626e-05)
(1.96888e-05 -4.65833e-07 -2.5168e-09 1.10208e-08 3.92081e-09 -1.96998e-05)
(1.95949e-05 -4.84268e-07 -2.25823e-09 1.19667e-08 5.44787e-09 -1.96069e-05)
(1.94785e-05 -5.02734e-07 -1.95061e-09 1.29732e-08 6.70313e-09 -1.94915e-05)
(1.93468e-05 -5.21426e-07 -1.60733e-09 1.40503e-08 7.64962e-09 -1.93609e-05)
(1.92071e-05 -5.40451e-07 -1.24376e-09 1.52037e-08 8.25676e-09 -1.92223e-05)
(1.9066e-05 -5.59832e-07 -8.76919e-10 1.64345e-08 8.50138e-09 -1.90825e-05)
(1.89299e-05 -5.79499e-07 -5.28036e-10 1.77364e-08 8.37339e-09 -1.89477e-05)
(1.88043e-05 -5.99282e-07 -2.20555e-10 1.90955e-08 7.88241e-09 -1.88234e-05)
(1.86935e-05 -6.18893e-07 1.55297e-11 2.04872e-08 7.06844e-09 -1.8714e-05)
(1.86006e-05 -6.37901e-07 1.44886e-10 2.18746e-08 6.01624e-09 -1.86225e-05)
(1.85268e-05 -6.55712e-07 1.24752e-10 2.3206e-08 4.86902e-09 -1.85501e-05)
(1.84709e-05 -6.71537e-07 -9.68506e-11 2.4414e-08 3.84637e-09 -1.84953e-05)
(1.84283e-05 -6.84359e-07 -5.79871e-10 2.5414e-08 3.26068e-09 -1.84538e-05)
(1.83914e-05 -6.92931e-07 -1.38694e-09 2.61069e-08 3.52838e-09 -1.84175e-05)
(1.83478e-05 -6.95813e-07 -2.56965e-09 2.63862e-08 5.17524e-09 -1.83742e-05)
(1.82812e-05 -6.91476e-07 -4.16184e-09 2.61506e-08 8.82986e-09 -1.83073e-05)
(1.81703e-05 -6.7836e-07 -6.19517e-09 2.53133e-08 1.51612e-08 -1.81956e-05)
(1.79905e-05 -6.55051e-07 -8.64057e-09 2.38177e-08 2.47995e-08 -1.80143e-05)
(1.77153e-05 -6.20578e-07 -1.1402e-08 2.16584e-08 3.82629e-08 -1.7737e-05)
(1.73182e-05 -5.74676e-07 -1.43139e-08 1.88928e-08 5.58542e-08 -1.73371e-05)
(1.6775e-05 -5.17988e-07 -1.7151e-08 1.56413e-08 7.75683e-08 -1.67907e-05)
(1.60671e-05 -4.52151e-07 -1.96667e-08 1.20709e-08 1.03041e-07 -1.60792e-05)
(1.51832e-05 -3.79716e-07 -2.16345e-08 8.36629e-09 1.31563e-07 -1.51915e-05)
(1.41208e-05 -3.03706e-07 -2.2914e-08 4.68246e-09 1.62127e-07 -1.41255e-05)
(1.28869e-05 -2.27845e-07 -2.30644e-08 1.14688e-09 1.93116e-07 -1.2888e-05)
(1.15023e-05 -1.56834e-07 -2.16706e-08 -2.13645e-09 2.2202e-07 -1.15001e-05)
(1.00045e-05 -9.55984e-08 -1.85698e-08 -5.11283e-09 2.45655e-07 -9.99937e-06)
(8.44791e-06 -4.82027e-08 -1.39945e-08 -7.77445e-09 2.60731e-07 -8.44014e-06)
(6.89899e-06 -1.67163e-08 -8.65971e-09 -1.01286e-08 2.64697e-07 -6.88886e-06)
(5.42708e-06 -3.74917e-10 -3.69274e-09 -1.21688e-08 2.56697e-07 -5.41491e-06)
(4.09219e-06 4.71895e-09 -3.4491e-10 -1.38922e-08 2.38073e-07 -4.07829e-06)
(2.93426e-06 4.06941e-09 9.9921e-10 -1.53452e-08 2.1168e-07 -2.91892e-06)
(1.97159e-06 2.04798e-09 9.99141e-10 -1.66507e-08 1.80432e-07 -1.95493e-06)
(1.20694e-06 6.39842e-10 5.50206e-10 -1.80057e-08 1.46315e-07 -1.18893e-06)
(6.35537e-07 8.61633e-11 1.83401e-10 -1.97103e-08 1.10173e-07 -6.15826e-07)
(2.51787e-07 -1.13141e-11 2.85943e-11 -2.24016e-08 7.1684e-08 -2.29385e-07)
(5.62698e-08 -1.33063e-12 1.33013e-12 -2.81349e-08 2.81349e-08 -2.81349e-08)
(0.000595458 -1.37914e-06 1.22959e-07 2.79503e-09 -4.87824e-07 -0.000595461)
(0.000605775 -3.94724e-06 4.57102e-08 2.30615e-08 -1.26937e-06 -0.000605798)
(0.000621528 -6.09344e-06 -6.2823e-08 5.54692e-08 -1.62862e-06 -0.000621584)
(0.000637829 -7.80657e-06 -1.66615e-07 9.15058e-08 -1.60351e-06 -0.000637921)
(0.000651737 -9.16128e-06 -2.43734e-07 1.25935e-07 -1.35789e-06 -0.000651863)
(0.000662321 -1.02634e-05 -2.92756e-07 1.57389e-07 -1.04159e-06 -0.000662479)
(0.000669735 -1.11944e-05 -3.20603e-07 1.86295e-07 -7.32975e-07 -0.000669922)
(0.00067447 -1.20094e-05 -3.34788e-07 2.13521e-07 -4.54963e-07 -0.000674683)
(0.000676991 -1.27406e-05 -3.40063e-07 2.39705e-07 -2.05553e-07 -0.00067723)
(0.000677666 -1.34089e-05 -3.3878e-07 2.65319e-07 2.13745e-08 -0.000677932)
(0.000676791 -1.40291e-05 -3.31962e-07 2.90733e-07 2.28573e-07 -0.000677082)
(0.000674631 -1.46135e-05 -3.20177e-07 3.16304e-07 4.1478e-07 -0.000674947)
(0.00067144 -1.51724e-05 -3.04071e-07 3.42364e-07 5.76536e-07 -0.000671783)
(0.000667476 -1.57139e-05 -2.84427e-07 3.69201e-07 7.09743e-07 -0.000667845)
(0.000662989 -1.6244e-05 -2.62267e-07 3.97024e-07 8.10509e-07 -0.000663386)
(0.000658222 -1.67663e-05 -2.38782e-07 4.25924e-07 8.75618e-07 -0.000658648)
(0.000653407 -1.72819e-05 -2.15334e-07 4.55855e-07 9.02626e-07 -0.000653863)
(0.000648755 -1.77893e-05 -1.93593e-07 4.86585e-07 8.9046e-07 -0.000649242)
(0.000644453 -1.82842e-05 -1.75481e-07 5.17671e-07 8.40109e-07 -0.000644971)
(0.000640653 -1.87592e-05 -1.63404e-07 5.48414e-07 7.55742e-07 -0.000641201)
(0.00063746 -1.92029e-05 -1.60232e-07 5.77822e-07 6.46218e-07 -0.000638038)
(0.000634914 -1.95996e-05 -1.69403e-07 6.04604e-07 5.26521e-07 -0.000635519)
(0.000632977 -1.99287e-05 -1.95019e-07 6.27167e-07 4.19638e-07 -0.000633604)
(0.000631505 -2.01642e-05 -2.41693e-07 6.43654e-07 3.58269e-07 -0.000632148)
(0.000630234 -2.02746e-05 -3.14134e-07 6.52009e-07 3.85981e-07 -0.000630886)
(0.000628761 -2.02244e-05 -4.16136e-07 6.50053e-07 5.57872e-07 -0.000629411)
(0.000626439 -1.99729e-05 -5.49989e-07 6.35437e-07 9.40231e-07 -0.000627075)
(0.000622607 -1.94852e-05 -7.16987e-07 6.05797e-07 1.60363e-06 -0.000623213)
(0.000616452 -1.87318e-05 -9.13861e-07 5.58336e-07 2.6146e-06 -0.00061701)
(0.000607079 -1.76946e-05 -1.13222e-06 4.89459e-07 4.02846e-06 -0.000607569)
(0.000593593 -1.6374e-05 -1.35852e-06 3.9421e-07 5.87842e-06 -0.000593988)
(0.000575181 -1.47919e-05 -1.57493e-06 2.65651e-07 8.16561e-06 -0.000575447)
(0.000551204 -1.2994e-05 -1.762e-06 9.42422e-08 1.08534e-05 -0.000551299)
(0.000521278 -1.10475e-05 -1.90237e-06 -1.32853e-07 1.38688e-05 -0.000521145)
(0.000485317 -9.02859e-06 -1.98326e-06 -4.33115e-07 1.71081e-05 -0.000484884)
(0.000443533 -7.02409e-06 -1.97529e-06 -8.26332e-07 2.0404e-05 -0.000442707)
(0.000396585 -5.13614e-06 -1.85106e-06 -1.32689e-06 2.34919e-05 -0.000395258)
(0.000345689 -3.46808e-06 -1.60088e-06 -1.934e-06 2.60311e-05 -0.000343755)
(0.000292628 -2.10694e-06 -1.24214e-06 -2.62155e-06 2.76617e-05 -0.000290006)
(0.000239625 -1.10657e-06 -8.24723e-07 -3.33455e-06 2.80954e-05 -0.000236291)
(0.000189082 -4.75333e-07 -4.27373e-07 -4.00276e-06 2.72233e-05 -0.000185079)
(0.000143175 -1.55489e-07 -1.39469e-07 -4.57567e-06 2.51835e-05 -0.000138599)
(0.000103411 -3.53196e-08 3.89152e-09 -5.04958e-06 2.22864e-05 -9.83616e-05)
(7.0533e-05 -6.63087e-09 3.9975e-08 -5.46106e-06 1.8851e-05 -6.5072e-05)
(4.45143e-05 -4.50465e-09 2.90131e-08 -5.83836e-06 1.50268e-05 -3.8676e-05)
(2.43003e-05 -4.17475e-09 1.12257e-08 -5.94121e-06 1.04439e-05 -1.83591e-05)
(7.46379e-06 -1.46242e-09 1.46232e-09 -3.7319e-06 3.73189e-06 -3.73189e-06)
(2.51787e-07 -2.85969e-11 1.13115e-11 -2.29385e-07 7.16839e-08 -2.24016e-08)
(0.00507969 -9.4531e-06 5.78613e-06 7.47517e-09 -7.17859e-06 -0.0050797)
(0.00515949 -2.72972e-05 5.04752e-06 7.70691e-08 -1.86663e-05 -0.00515957)
(0.00528124 -4.27843e-05 3.97319e-06 2.38463e-07 -2.39288e-05 -0.00528147)
(0.00540721 -5.5802e-05 2.97033e-06 4.73535e-07 -2.35538e-05 -0.00540769)
(0.00551493 -6.66266e-05 2.24929e-06 7.32868e-07 -1.99621e-05 -0.00551567)
(0.0055972 -7.57338e-05 1.81031e-06 9.82796e-07 -1.53452e-05 -0.00559818)
(0.00565511 -8.35336e-05 1.56975e-06 1.2132e-06 -1.08434e-05 -0.00565632)
(0.00569232 -9.03402e-05 1.44461e-06 1.42571e-06 -6.78769e-06 -0.00569375)
(0.0057124 -9.63638e-05 1.38385e-06 1.62388e-06 -3.14818e-06 -0.00571402)
(0.00571815 -0.000101755 1.3644e-06 1.81073e-06 1.6467e-07 -0.00571996)
(0.00571189 -0.000106625 1.37827e-06 1.98858e-06 3.19136e-06 -0.00571388)
(0.00569567 -0.000111066 1.42296e-06 2.15959e-06 5.91418e-06 -0.00569783)
(0.00567148 -0.00011515 1.4952e-06 2.32577e-06 8.2834e-06 -0.00567381)
(0.00564128 -0.000118938 1.59002e-06 2.48893e-06 1.02398e-05 -0.00564377)
(0.00560699 -0.000122471 1.69935e-06 2.65041e-06 1.17269e-05 -0.00560964)
(0.00557048 -0.000125777 1.81258e-06 2.81081e-06 1.26977e-05 -0.00557329)
(0.00553347 -0.000128865 1.91629e-06 2.96977e-06 1.31166e-05 -0.00553644)
(0.00549758 -0.000131731 1.99271e-06 3.1257e-06 1.29677e-05 -0.0055007)
(0.00546417 -0.00013435 2.01998e-06 3.27558e-06 1.22655e-05 -0.00546745)
(0.00543436 -0.000136678 1.96949e-06 3.41483e-06 1.10709e-05 -0.00543778)
(0.00540886 -0.00013865 1.80589e-06 3.53727e-06 9.51388e-06 -0.0054124)
(0.00538789 -0.000140176 1.48609e-06 3.63547e-06 7.8139e-06 -0.00539153)
(0.00537101 -0.000141137 9.5845e-07 3.70128e-06 6.30736e-06 -0.00537471)
(0.00535698 -0.000141395 1.65128e-07 3.72642e-06 5.4712e-06 -0.0053607)
(0.0053436 -0.000140786 -9.531e-07 3.70263e-06 5.93668e-06 -0.0053473)
(0.00532768 -0.000139132 -2.4442e-06 3.61995e-06 8.50371e-06 -0.0053313)
(0.00530766 -0.000136318 -4.34221e-06 3.46377e-06 1.41466e-05 -0.00531112)
(0.00527607 -0.000132126 -6.66253e-06 3.20171e-06 2.38956e-05 -0.00527927)
(0.00522646 -0.000126444 -9.36744e-06 2.7749e-06 3.87329e-05 -0.00522924)
(0.00515191 -0.000119234 -1.23597e-05 2.07831e-06 5.94982e-05 -0.00515399)
(0.00504541 -0.000110548 -1.54806e-05 9.41745e-07 8.67348e-05 -0.00504635)
(0.00490043 -0.000100544 -1.85176e-05 -8.86142e-07 0.000120548 -0.00489955)
(0.00471165 -8.94877e-05 -2.12308e-05 -3.74775e-06 0.000160514 -0.0047079)
(0.0044755 -7.77631e-05 -2.33959e-05 -8.08398e-06 0.000205683 -0.00446742)
(0.00419068 -6.57402e-05 -2.48581e-05 -1.44558e-05 0.000254682 -0.00417623)
(0.00385782 -5.37602e-05 -2.52849e-05 -2.34906e-05 0.0003052 -0.00383433)
(0.00348069 -4.21784e-05 -2.43451e-05 -3.56862e-05 0.000353416 -0.00344501)
(0.00306719 -3.13394e-05 -2.18663e-05 -5.11398e-05 0.000394188 -0.00301605)
(0.00262972 -2.15949e-05 -1.79306e-05 -6.92447e-05 0.000421764 -0.00256048)
(0.00218489 -1.33544e-05 -1.29508e-05 -8.85194e-05 0.000431064 -0.00209637)
(0.00175232 -7.15494e-06 -7.72062e-06 -0.000106876 0.000419446 -0.00164544)
(0.00135201 -3.25893e-06 -3.45741e-06 -0.000122545 0.000388175 -0.00122946)
(0.000998947 -1.28569e-06 -9.28623e-07 -0.000134742 0.000341242 -0.000864206)
(0.000695951 -4.8517e-07 7.32389e-08 -0.000142054 0.000280505 -0.000553897)
(0.00042809 -2.0785e-07 2.20769e-07 -0.000135708 0.000199195 -0.000292382)
(0.000176256 -8.1864e-08 8.18604e-08 -8.8128e-05 8.8128e-05 -8.8128e-05)
(2.43003e-05 -1.12261e-08 4.17431e-09 -1.83591e-05 1.04439e-05 -5.9412e-06)
(6.35536e-07 -1.83408e-10 -8.61715e-11 -6.15826e-07 1.10173e-07 -1.97103e-08)
(0.0194007 -2.70699e-05 7.20437e-05 -4.50454e-08 -4.01763e-05 -0.0194007)
(0.0196529 -7.93261e-05 6.97296e-05 -2.31358e-07 -0.000104376 -0.0196527)
(0.0200374 -0.000127299 6.60215e-05 -7.77136e-08 -0.000133675 -0.0200373)
(0.0204349 -0.000170385 6.27001e-05 5.80106e-07 -0.00013157 -0.0204355)
(0.020775 -0.000208283 6.04588e-05 1.49457e-06 -0.000111652 -0.0207765)
(0.0210352 -0.00024126 5.92114e-05 2.42037e-06 -8.60815e-05 -0.0210376)
(0.021219 -0.000269851 5.85828e-05 3.25987e-06 -6.115e-05 -0.0212223)
(0.021338 -0.000294693 5.82381e-05 4.0027e-06 -3.86826e-05 -0.021342)
(0.0214033 -0.00031635 5.79843e-05 4.66123e-06 -1.85213e-05 -0.0214079)
(0.0214239 -0.000335288 5.77484e-05 5.2473e-06 -1.74451e-07 -0.0214291)
(0.0214072 -0.000351872 5.75191e-05 5.76941e-06 1.65847e-05 -0.021413)
(0.0213597 -0.000366394 5.73071e-05 6.23506e-06 3.1667e-05 -0.0213659)
(0.0212876 -0.000379083 5.71176e-05 6.65198e-06 4.48081e-05 -0.0212942)
(0.021197 -0.000390118 5.69463e-05 7.02805e-06 5.56892e-05 -0.021204)
(0.0210938 -0.00039963 5.67721e-05 7.37039e-06 6.40054e-05 -0.0211012)
(0.0209837 -0.000407705 5.65591e-05 7.68408e-06 6.95034e-05 -0.0209914)
(0.020872 -0.00041439 5.62547e-05 7.97127e-06 7.19933e-05 -0.02088)
(0.0207634 -0.000419689 5.57818e-05 8.22989e-06 7.13978e-05 -0.0207716)
(0.020662 -0.000423564 5.50398e-05 8.45297e-06 6.78106e-05 -0.0206705)
(0.0205711 -0.000425939 5.38919e-05 8.62835e-06 6.15893e-05 -0.0205797)
(0.0204924 -0.000426695 5.21652e-05 8.73948e-06 5.34784e-05 -0.0205011)
(0.0204262 -0.00042567 4.9647e-05 8.76816e-06 4.47255e-05 -0.020435)
(0.020371 -0.000422667 4.60827e-05 8.69796e-06 3.72291e-05 -0.0203797)
(0.0203223 -0.000417471 4.11895e-05 8.51677e-06 3.36651e-05 -0.0203308)
(0.0202732 -0.000409872 3.46763e-05 8.21321e-06 3.75552e-05 -0.0202814)
(0.020215 -0.000399675 2.62889e-05 7.75614e-06 5.33823e-05 -0.0202227)
(0.0201455 -0.000386842 1.58399e-05 7.05022e-06 8.65177e-05 -0.0201525)
(0.0200392 -0.000371046 3.24676e-06 5.84749e-06 0.00014266 -0.0200451)
(0.0198759 -0.000352321 -1.1357e-05 3.63788e-06 0.000227423 -0.0198796)
(0.019634 -0.000330848 -2.75804e-05 -5.1278e-07 0.000345768 -0.0196335)
(0.0192909 -0.00030696 -4.47588e-05 -8.12954e-06 0.000501264 -0.0192828)
(0.0188251 -0.000281132 -6.1962e-05 -2.14743e-05 0.000695358 -0.0188036)
(0.0182176 -0.000253983 -7.80715e-05 -4.36485e-05 0.000926833 -0.018174)
(0.0174542 -0.000226421 -9.1938e-05 -7.86732e-05 0.00119169 -0.0173756)
(0.0165273 -0.000199154 -0.000102837 -0.000131679 0.00148364 -0.0163956)
(0.0154342 -0.000172462 -0.000109657 -0.000208574 0.00179128 -0.0152256)
(0.0141801 -0.00014599 -0.000111246 -0.000314596 0.00209457 -0.0138655)
(0.0127797 -0.000118942 -0.000106697 -0.000452103 0.00236466 -0.0123276)
(0.0112581 -9.0647e-05 -9.54547e-05 -0.000617673 0.002566 -0.0106404)
(0.00965138 -6.14858e-05 -7.73509e-05 -0.000799318 0.00266124 -0.00885206)
(0.00800598 -3.49455e-05 -5.32295e-05 -0.000975799 0.00261966 -0.00703018)
(0.0063749 -1.56012e-05 -2.87516e-05 -0.00112063 0.00242667 -0.00525428)
(0.00478499 -5.15077e-06 -1.08241e-05 -0.00119911 0.00207363 -0.00358587)
(0.00319462 -1.36652e-06 -1.77302e-06 -0.0011355 0.0015291 -0.00205912)
(0.00159861 -5.42653e-07 5.42615e-07 -0.000799307 0.000799307 -0.000799307)
(0.00042809 -2.20778e-07 2.0784e-07 -0.000292382 0.000199195 -0.000135708)
(4.45143e-05 -2.90138e-08 4.50368e-09 -3.86759e-05 1.50268e-05 -5.83835e-06)
(1.20694e-06 -5.50218e-10 -6.39863e-10 -1.18893e-06 1.46315e-07 -1.80056e-08)
(0.043943 -4.22524e-05 0.000215249 -3.11388e-07 -0.000124548 -0.0439427)
(0.0443821 -0.000126981 0.000205142 -1.98555e-06 -0.000323376 -0.0443801)
(0.0450534 -0.000211425 0.000188834 -2.79677e-06 -0.000413954 -0.0450506)
(0.0457479 -0.000293583 0.000172719 -1.72744e-06 -0.000407509 -0.0457462)
(0.046343 -0.000370166 0.000159834 3.90371e-07 -0.000346107 -0.0463434)
(0.0467994 -0.000438876 0.000150635 2.60691e-06 -0.000267127 -0.046802)
(0.0471233 -0.000498975 0.000144352 4.53006e-06 -0.000189954 -0.0471279)
(0.0473353 -0.000550792 0.00014007 6.11145e-06 -0.000120311 -0.0473414)
(0.0474557 -0.000595085 0.000137132 7.39592e-06 -5.78348e-05 -0.0474631)
(0.0475008 -0.00063265 0.000135173 8.42609e-06 -1.07681e-06 -0.0475092)
(0.0474839 -0.000664169 0.000133992 9.2318e-06 5.0658e-05 -0.0474931)
(0.0474166 -0.000690186 0.000133453 9.83924e-06 9.71351e-05 -0.0474264)
(0.0473098 -0.000711127 0.000133415 1.02773e-05 0.000137595 -0.04732)
(0.0471739 -0.000727318 0.000133716 1.0578e-05 0.000171115 -0.0471845)
(0.0470191 -0.000739008 0.000134161 1.07737e-05 0.000196818 -0.0470299)
(0.0468548 -0.000746377 0.000134527 1.08927e-05 0.000213988 -0.0468657)
(0.0466897 -0.000749554 0.000134562 1.09561e-05 0.000222128 -0.0467006)
(0.0465314 -0.000748614 0.000133968 1.0973e-05 0.000221105 -0.0465424)
(0.0463862 -0.000743597 0.000132404 1.09381e-05 0.000211349 -0.0463972)
(0.0462588 -0.000734514 0.000129461 1.0831e-05 0.000194134 -0.0462696)
(0.0461513 -0.000721344 0.000124658 1.06192e-05 0.000171963 -0.0461619)
(0.0460635 -0.000704055 0.00011745 1.02673e-05 0.00014892 -0.0460737)
(0.0459913 -0.000682617 0.000107223 9.74653e-06 0.000131127 -0.046001)
(0.0459265 -0.000657028 9.33429e-05 9.03528e-06 0.000127125 -0.0459355)
(0.0458568 -0.000627396 7.51549e-05 8.08841e-06 0.000148148 -0.0458649)
(0.0457724 -0.000593954 5.19742e-05 6.73517e-06 0.000208216 -0.0457791)
(0.0456692 -0.000557054 2.34672e-05 4.46432e-06 0.000323651 -0.0456736)
(0.0455024 -0.000516818 -1.00827e-05 5.50289e-08 0.000512127 -0.0455025)
(0.045237 -0.000473878 -4.79756e-05 -8.95747e-06 0.000791651 -0.045228)
(0.0448347 -0.000429096 -8.88857e-05 -2.69716e-05 0.00117863 -0.0448077)
(0.0442547 -0.000383506 -0.000130857 -6.10712e-05 0.00168592 -0.0441936)
(0.0434561 -0.000338245 -0.000171387 -0.00012172 0.00232066 -0.0433344)
(0.0424015 -0.000294404 -0.000207754 -0.000223315 0.00308261 -0.0421782)
(0.0410615 -0.000253408 -0.000237784 -0.000384639 0.00396323 -0.0406768)
(0.0394189 -0.000218049 -0.000263634 -0.000629423 0.00494576 -0.0387894)
(0.0374665 -0.000191496 -0.000281556 -0.000984991 0.00599763 -0.0364815)
(0.0352077 -0.000171898 -0.000289902 -0.00147734 0.00706169 -0.0337304)
(0.0326486 -0.000154195 -0.000288948 -0.00212232 0.00805141 -0.0305263)
(0.0297854 -0.000131334 -0.000278045 -0.00291222 0.00884871 -0.0268731)
(0.0265823 -9.51903e-05 -0.000251981 -0.00379537 0.00930147 -0.022787)
(0.02294 -4.97476e-05 -0.000197127 -0.00464475 0.00921925 -0.0182953)
(0.0187101 -9.99504e-06 -0.000118285 -0.00523069 0.0083971 -0.0134794)
(0.013719 8.76303e-06 -4.67069e-05 -0.00518081 0.00665094 -0.00853817)
(0.00810047 7.70252e-06 -7.7027e-06 -0.00405024 0.00405023 -0.00405023)
(0.00319462 1.77294e-06 1.36644e-06 -0.00205912 0.0015291 -0.0011355)
(0.000695951 -7.3253e-08 4.85152e-07 -0.000553897 0.000280505 -0.000142054)
(7.0533e-05 -3.99761e-08 6.62908e-09 -6.50719e-05 1.8851e-05 -5.46105e-06)
(1.97158e-06 -9.99159e-10 -2.04803e-09 -1.95493e-06 1.80432e-07 -1.66507e-08)
(0.0682121 -4.22458e-05 0.000153303 -9.35687e-07 -0.000256135 -0.0682112)
(0.0686852 -0.000131211 0.000128537 -6.18724e-06 -0.000664936 -0.0686791)
(0.0694131 -0.000228408 9.14077e-05 -9.69322e-06 -0.000851435 -0.0694034)
(0.0701762 -0.000330536 5.34422e-05 -8.47829e-06 -0.000839167 -0.0701678)
(0.0708407 -0.000430686 2.15204e-05 -4.57812e-06 -0.000713977 -0.0708361)
(0.0713586 -0.000522862 -2.66368e-06 -4.38816e-07 -0.000551893 -0.0713582)
(0.0717339 -0.000603948 -2.01453e-05 2.93248e-06 -0.000392724 -0.0717368)
(0.0719883 -0.000673024 -3.25505e-05 5.431e-06 -0.000248661 -0.0719938)
(0.0721456 -0.000730414 -4.12146e-05 7.19567e-06 -0.000119441 -0.0721528)
(0.0722255 -0.000776846 -4.7e-05 8.35552e-06 -2.3498e-06 -0.0722338)
(0.0722443 -0.000813097 -5.04809e-05 9.00325e-06 0.000103986 -0.0722533)
(0.0722162 -0.000839834 -5.20984e-05 9.22086e-06 0.00019918 -0.0722254)
(0.0721538 -0.000857599 -5.22954e-05 9.09733e-06 0.000281828 -0.0721628)
(0.072069 -0.000866822 -5.15303e-05 8.7301e-06 0.000350221 -0.0720777)
(0.0719729 -0.000867845 -5.03164e-05 8.21753e-06 0.000402761 -0.0719811)
(0.0718755 -0.000860937 -4.91997e-05 7.64789e-06 0.00043823 -0.0718832)
(0.0717854 -0.000846313 -4.87668e-05 7.08956e-06 0.000455917 -0.0717925)
(0.0717097 -0.00082414 -4.96741e-05 6.57995e-06 0.00045596 -0.0717163)
(0.0716532 -0.000794545 -5.26332e-05 6.11906e-06 0.000439748 -0.0716594)
(0.0716189 -0.000757632 -5.84727e-05 5.66846e-06 0.000410522 -0.0716245)
(0.0716066 -0.00071347 -6.81203e-05 5.15945e-06 0.000374147 -0.0716118)
(0.0716134 -0.000662121 -8.26034e-05 4.51174e-06 0.00033983 -0.0716179)
(0.0716325 -0.000603626 -0.000103045 3.64422e-06 0.000321021 -0.0716361)
(0.0716531 -0.000538006 -0.000130565 2.44658e-06 0.000336207 -0.0716555)
(0.0716621 -0.000465323 -0.000166281 6.46492e-07 0.000409374 -0.0716628)
(0.0716614 -0.000385906 -0.000211389 -2.52225e-06 0.000569685 -0.0716589)
(0.0716396 -0.000300286 -0.000266448 -8.96914e-06 0.000850581 -0.0716307)
(0.0715518 -0.000208971 -0.000330618 -2.28335e-05 0.00128899 -0.071529)
(0.0713619 -0.000112639 -0.000402256 -5.20508e-05 0.00192337 -0.0713099)
(0.0710307 -1.2453e-05 -0.000478515 -0.000110312 0.00278996 -0.0709204)
(0.0705165 8.98947e-05 -0.000555365 -0.000219256 0.00391915 -0.0702973)
(0.0697779 0.000191938 -0.000627723 -0.000410565 0.00533138 -0.0693673)
(0.0687801 0.000290134 -0.000689918 -0.000727745 0.00703356 -0.0680524)
(0.0675011 0.000379711 -0.000734726 -0.0012282 0.00901875 -0.0662729)
(0.0659304 0.000446204 -0.000757556 -0.00198216 0.0112551 -0.0639482)
(0.0640759 0.00047434 -0.000762396 -0.00306879 0.0136787 -0.0610071)
(0.0619341 0.000458477 -0.000750767 -0.00456653 0.0161809 -0.0573676)
(0.0594505 0.000399514 -0.000722285 -0.00652695 0.0185813 -0.0529236)
(0.0564645 0.000308507 -0.000677689 -0.00893033 0.0206001 -0.0475342)
(0.0525977 0.000222368 -0.000612693 -0.0116009 0.0218071 -0.0409968)
(0.0469525 0.000163585 -0.000485582 -0.0139918 0.0214753 -0.0329607)
(0.038288 0.000137001 -0.0002896 -0.0149744 0.0186846 -0.0233136)
(0.026342 0.000100586 -0.000100586 -0.013171 0.013171 -0.013171)
(0.013719 4.67066e-05 -8.76331e-06 -0.00853817 0.00665094 -0.00518081)
(0.00478498 1.0824e-05 5.15065e-06 -0.00358587 0.00207363 -0.00119911)
(0.000998947 9.28603e-07 1.28566e-06 -0.000864205 0.000341242 -0.000134741)
(0.000103411 -3.89304e-09 3.53167e-08 -9.83615e-05 2.22864e-05 -5.04957e-06)
(2.93426e-06 -9.99235e-10 -4.06949e-09 -2.91892e-06 2.1168e-07 -1.53451e-08)
(0.080203 -2.99096e-05 0.000102589 -1.87664e-06 -0.000388926 -0.0802011)
(0.0802074 -9.5613e-05 7.93412e-05 -1.25267e-05 -0.0010064 -0.0801948)
(0.0801941 -0.000172821 4.77083e-05 -2.01705e-05 -0.00128287 -0.080174)
(0.0801661 -0.000258593 1.60681e-05 -1.89811e-05 -0.00125979 -0.0801471)
(0.0801268 -0.000345521 -1.00772e-05 -1.28063e-05 -0.00106984 -0.080114)
(0.0800857 -0.000426621 -2.99517e-05 -6.27215e-06 -0.000826846 -0.0800794)
(0.0800511 -0.000497696 -4.49522e-05 -1.25243e-06 -0.000589474 -0.0800498)
(0.0800267 -0.000556804 -5.66688e-05 2.10681e-06 -0.000375597 -0.0800288)
(0.0800126 -0.000603525 -6.62323e-05 4.12246e-06 -0.000184888 -0.0800167)
(0.0800069 -0.000638082 -7.42486e-05 5.08639e-06 -1.33053e-05 -0.080012)
(0.0800071 -0.000660925 -8.1042e-05 5.21222e-06 0.000141415 -0.0800123)
(0.0800108 -0.000672505 -8.68227e-05 4.68428e-06 0.000279073 -0.0800154)
(0.0800161 -0.000673197 -9.1836e-05 3.69174e-06 0.000398014 -0.0800198)
(0.0800217 -0.000663306 -9.6374e-05 2.43212e-06 0.00049613 -0.0800241)
(0.0800271 -0.000643069 -0.000100835 1.09754e-06 0.000571512 -0.0800282)
(0.0800323 -0.000612669 -0.000105703 -1.45452e-07 0.0006229 -0.0800321)
(0.0800382 -0.000572254 -0.000111574 -1.17364e-06 0.000649954 -0.0800371)
(0.0800471 -0.000521909 -0.000119204 -1.92466e-06 0.000653802 -0.0800451)
(0.0800621 -0.000461664 -0.000129502 -2.40486e-06 0.000637635 -0.0800596)
(0.0800881 -0.000391476 -0.000143625 -2.68681e-06 0.000607545 -0.0800854)
(0.0801316 -0.000311173 -0.000162973 -2.89445e-06 0.000573547 -0.0801287)
(0.0802011 -0.000220465 -0.000189206 -3.18271e-06 0.000550519 -0.0801979)
(0.080307 -0.000118844 -0.000224293 -3.75395e-06 0.000559357 -0.0803033)
(0.0804616 -5.54535e-06 -0.000270398 -4.97985e-06 0.000627959 -0.0804567)
(0.080677 0.000120441 -0.000329703 -7.75267e-06 0.000791647 -0.0806693)
(0.0809616 0.000260089 -0.000404199 -1.42571e-05 0.00109363 -0.0809473)
(0.0813306 0.000413986 -0.000495749 -2.93658e-05 0.00158458 -0.0813012)
(0.0818021 0.000583047 -0.000605704 -6.29105e-05 0.0023228 -0.0817392)
(0.0823893 0.000768502 -0.00073408 -0.000133044 0.00337352 -0.0822562)
(0.0831004 0.000970672 -0.00087918 -0.0002707 0.00480602 -0.0828297)
(0.0839365 0.00118813 -0.00103719 -0.000525093 0.00669016 -0.0834114)
(0.0848852 0.00141576 -0.00120119 -0.000969686 0.00909 -0.0839155)
(0.0859117 0.00164082 -0.00136022 -0.00170739 0.0120527 -0.0842043)
(0.0869367 0.00184266 -0.00149558 -0.0028736 0.0155931 -0.0840631)
(0.086835 0.00196353 -0.00154544 -0.00458114 0.0194471 -0.0822538)
(0.086265 0.00198794 -0.00153196 -0.00698753 0.0235551 -0.0792775)
(0.0856192 0.00190538 -0.00147664 -0.0102517 0.0278012 -0.0753675)
(0.0847303 0.00171099 -0.00138855 -0.0144474 0.0318614 -0.0702829)
(0.0831484 0.00141869 -0.00128582 -0.0194695 0.0352043 -0.0636789)
(0.0799448 0.00110842 -0.00118197 -0.0248431 0.0369949 -0.0551017)
(0.0728304 0.000804207 -0.000944255 -0.0291197 0.0356763 -0.0437107)
(0.0587311 0.000512454 -0.000512455 -0.0293655 0.0293655 -0.0293655)
(0.038288 0.000289599 -0.000137002 -0.0233136 0.0186845 -0.0149744)
(0.01871 0.000118285 9.99471e-06 -0.0134794 0.00839709 -0.00523068)
(0.0063749 2.87515e-05 1.56011e-05 -0.00525428 0.00242666 -0.00112062)
(0.00135201 3.45738e-06 3.25889e-06 -0.00122946 0.000388175 -0.000122545)
(0.000143175 1.39467e-07 1.55485e-07 -0.000138599 2.51835e-05 -4.57566e-06)
(4.09218e-06 3.44878e-10 -4.71908e-09 -4.07829e-06 2.38072e-07 -1.38922e-08)
(0.077492 -1.24482e-05 0.000426476 -2.8272e-06 -0.000467899 -0.0774892)
(0.0775292 -4.35705e-05 0.000403843 -1.90939e-05 -0.0012166 -0.0775101)
(0.0775714 -8.76625e-05 0.000370089 -3.14653e-05 -0.0015638 -0.0775399)
(0.0775975 -0.000142861 0.000335004 -3.07783e-05 -0.00155143 -0.0775667)
(0.077602 -0.00020242 0.000304356 -2.23264e-05 -0.00133173 -0.0775796)
(0.0775934 -0.00025927 0.000279396 -1.30614e-05 -0.00104001 -0.0775803)
(0.0775822 -0.000308586 0.000259087 -5.99648e-06 -0.000749357 -0.0775762)
(0.0775745 -0.000347558 0.000242042 -1.4578e-06 -0.000484491 -0.077573)
(0.077572 -0.000374983 0.000227204 1.02945e-06 -0.000247396 -0.077573)
(0.0775736 -0.000390489 0.000213971 1.95076e-06 -3.44996e-05 -0.0775755)
(0.0775773 -0.000394143 0.000201975 1.68287e-06 0.000156414 -0.077579)
(0.0775811 -0.000386156 0.000190933 5.5191e-07 0.000325087 -0.0775816)
(0.0775838 -0.000366768 0.000180505 -1.12137e-06 0.000469801 -0.0775826)
(0.0775846 -0.000336191 0.000170293 -3.01889e-06 0.00058852 -0.0775816)
(0.0775839 -0.000294575 0.000159776 -4.84705e-06 0.00067968 -0.0775791)
(0.0775827 -0.00024197 0.00014834 -6.3658e-06 0.000742757 -0.0775764)
(0.0775831 -0.000178332 0.000135246 -7.4115e-06 0.000778633 -0.0775757)
(0.0775886 -0.000103431 0.000119565 -7.915e-06 0.000790239 -0.0775807)
(0.077604 -1.68622e-05 0.000100205 -7.90443e-06 0.000783241 -0.0775961)
(0.077636 8.2016e-05 7.57713e-05 -7.4958e-06 0.000766959 -0.0776285)
(0.0776933 0.000194147 4.45928e-05 -6.87808e-06 0.000755474 -0.0776865)
(0.0777867 0.000320751 4.67025e-06 -6.31799e-06 0.000768624 -0.0777804)
(0.0779298 0.00046344 -4.64111e-05 -6.25899e-06 0.00083321 -0.0779235)
(0.0781381 0.000624073 -0.000111332 -7.62559e-06 0.000983651 -0.0781305)
(0.0784268 0.00080458 -0.000192831 -1.25379e-05 0.00126282 -0.0784142)
(0.0788125 0.00100701 -0.000293546 -2.5691e-05 0.00172293 -0.0787868)
(0.0793149 0.00123279 -0.000415637 -5.66694e-05 0.00242472 -0.0792582)
(0.0799566 0.00148281 -0.000561039 -0.000123526 0.00343742 -0.079833)
(0.0807537 0.00175657 -0.000729698 -0.000257868 0.0048374 -0.0804958)
(0.081711 0.00204965 -0.000918497 -0.00051129 0.00670349 -0.0811998)
(0.0828155 0.002351 -0.00112058 -0.000962561 0.00910932 -0.0818529)
(0.0840182 0.002639 -0.00132222 -0.00172355 0.0121084 -0.0822946)
(0.0852135 0.00287625 -0.00150039 -0.00293939 0.0157078 -0.0822742)
(0.0862442 0.00301413 -0.00162817 -0.00477668 0.0198362 -0.0814675)
(0.0868937 0.00301502 -0.00167262 -0.0074005 0.024318 -0.0794933)
(0.0869949 0.00286324 -0.001621 -0.0109336 0.028864 -0.0760612)
(0.0865495 0.00257268 -0.00150047 -0.0154201 0.0331217 -0.0711294)
(0.0857495 0.00219521 -0.0013617 -0.0208342 0.0367708 -0.0649152)
(0.0849585 0.00178616 -0.00126493 -0.0271344 0.0396058 -0.0578241)
(0.0850019 0.00147074 -0.00129799 -0.0344821 0.0417359 -0.0505198)
(0.0865404 0.00134929 -0.00134929 -0.0432702 0.0432702 -0.0432702)
(0.0728304 0.000944254 -0.000804207 -0.0437107 0.0356763 -0.0291197)
(0.0469525 0.000485581 -0.000163585 -0.0329607 0.0214752 -0.0139918)
(0.02294 0.000197127 4.97473e-05 -0.0182953 0.00921924 -0.00464474)
(0.00800597 5.32293e-05 3.49453e-05 -0.00703018 0.00261966 -0.000975797)
(0.00175231 7.72058e-06 7.15489e-06 -0.00164544 0.000419445 -0.000106876)
(0.000189082 4.27371e-07 4.75327e-07 -0.000185079 2.72232e-05 -4.00275e-06)
(5.42707e-06 3.6927e-09 3.7472e-10 -5.41491e-06 2.56697e-07 -1.21688e-08)
(0.0762892 2.29457e-06 0.00061135 -4.02335e-06 -0.000553324 -0.0762851)
(0.0763781 3.07033e-07 0.000582194 -2.74761e-05 -0.00144674 -0.0763506)
(0.0765083 -1.52524e-05 0.000534755 -4.62016e-05 -0.00187782 -0.0764621)
(0.0766249 -4.25588e-05 0.000483835 -4.64573e-05 -0.00188531 -0.0765784)
(0.0767064 -7.54436e-05 0.000437564 -3.49728e-05 -0.0016385 -0.0766714)
(0.0767567 -0.000107178 0.000398481 -2.17053e-05 -0.00129476 -0.076735)
(0.0767883 -0.000132994 0.000365917 -1.13707e-05 -0.000943824 -0.0767769)
(0.0768109 -0.000149808 0.000338382 -4.70053e-06 -0.000619448 -0.0768062)
(0.0768291 -0.000156008 0.000314565 -1.07678e-06 -0.000327386 -0.076828)
(0.0768437 -0.000150824 0.000293586 2.39583e-07 -6.52934e-05 -0.0768439)
(0.0768541 -0.000134004 0.000274798 -1.39573e-07 0.0001687 -0.076854)
(0.0768598 -0.000105522 0.000257636 -1.68121e-06 0.000374255 -0.0768581)