/*--------------------------------*- C++ -*----------------------------------*\
| =========                 |                                                 |
| \\      /  F ield         | OpenFOAM: The Open Source CFD Toolbox           |
|  \\    /   O peration     | Version:  2312                                  |
|   \\  /    A nd           | Website:  www.openfoam.com                      |
|    \\/     M anipulation  |                                                 |
\*---------------------------------------------------------------------------*/
FoamFile
{
    version     2.0;
    format      ascii;
    arch        "LSB;label=32;scalar=64";
    class       volScalarField;
    location    "1919";
    object      k;
}
// * * * * * * * * * * * * * * * * * * * * * * * * * * * * * * * * * * * * * //

dimensions      [0 2 -2 0 0 0 0];

internalField   nonuniform List<scalar> 
2304
(
1.37528e-05
1.39902e-05
1.43531e-05
1.47293e-05
1.5051e-05
1.52964e-05
1.54687e-05
1.55791e-05
1.56383e-05
1.56546e-05
1.56348e-05
1.5585e-05
1.55113e-05
1.54193e-05
1.53151e-05
1.52042e-05
1.50921e-05
1.49835e-05
1.4883e-05
1.4794e-05
1.47191e-05
1.46591e-05
1.46132e-05
1.45781e-05
1.45477e-05
1.45126e-05
1.44597e-05
1.43723e-05
1.42311e-05
1.40148e-05
1.37025e-05
1.3275e-05
1.27173e-05
1.20201e-05
1.11812e-05
1.0206e-05
9.1106e-06
7.9247e-06
6.69123e-06
5.46287e-06
4.29481e-06
3.23516e-06
2.31647e-06
1.55412e-06
9.501e-07
4.99321e-07
1.95779e-07
3.90375e-08
1.15086e-05
1.16984e-05
1.19934e-05
1.23064e-05
1.25821e-05
1.27999e-05
1.2959e-05
1.30654e-05
1.31261e-05
1.31465e-05
1.31315e-05
1.30857e-05
1.30138e-05
1.29206e-05
1.28108e-05
1.26893e-05
1.25606e-05
1.24293e-05
1.22998e-05
1.21759e-05
1.20613e-05
1.19585e-05
1.18694e-05
1.17942e-05
1.17316e-05
1.16791e-05
1.163e-05
1.15704e-05
1.14841e-05
1.13521e-05
1.11537e-05
1.08676e-05
1.04745e-05
9.95883e-06
9.3105e-06
8.52518e-06
7.60773e-06
6.57642e-06
5.46623e-06
4.32976e-06
3.23377e-06
2.24921e-06
1.43467e-06
8.21435e-07
4.07606e-07
1.65172e-07
6.40579e-08
1.95779e-07
7.08185e-05
7.19554e-05
7.37286e-05
7.56199e-05
7.72972e-05
7.86325e-05
7.96158e-05
8.02799e-05
8.06625e-05
8.07959e-05
8.07083e-05
8.04266e-05
7.9979e-05
7.93938e-05
7.87001e-05
7.79267e-05
7.71021e-05
7.62539e-05
7.54088e-05
7.45923e-05
7.3827e-05
7.31319e-05
7.252e-05
7.19967e-05
7.1559e-05
7.11973e-05
7.08896e-05
7.05419e-05
7.00557e-05
6.93149e-05
6.8189e-05
6.6542e-05
6.42459e-05
6.11941e-05
5.73123e-05
5.25586e-05
4.69459e-05
4.05703e-05
3.36379e-05
2.6478e-05
1.95293e-05
1.32795e-05
8.14715e-06
4.36369e-06
1.92202e-06
6.18277e-07
1.65172e-07
4.99321e-07
0.000255696
0.000259515
0.000265469
0.000271822
0.000277463
0.000281963
0.000285285
0.000287536
0.000288839
0.000289301
0.000289016
0.000288073
0.000286564
0.000284584
0.00028223
0.000279597
0.000276778
0.000273868
0.000270955
0.000268124
0.000265454
0.000263009
0.000260833
0.000258946
0.000257341
0.000255989
0.000254791
0.000253449
0.000251635
0.000248964
0.000244996
0.000239271
0.000231343
0.000220827
0.000207428
0.000190954
0.000171374
0.000148918
0.000124186
9.82411e-05
7.26313e-05
4.92368e-05
2.98329e-05
1.55482e-05
6.51253e-06
1.92202e-06
4.07606e-07
9.501e-07
0.000594351
0.000601724
0.000613219
0.000625495
0.000636432
0.0006452
0.000651712
0.000656154
0.000658749
0.000659697
0.000659172
0.000657344
0.000654385
0.000650472
0.000645787
0.000640508
0.000634814
0.00062888
0.00062288
0.00061698
0.000611332
0.000606066
0.000601276
0.000597005
0.000593242
0.000589918
0.000586789
0.000583335
0.000578936
0.000572853
0.000564238
0.000552174
0.000535735
0.000514036
0.000486284
0.00045186
0.00041034
0.000361674
0.000306494
0.000246493
0.000184798
0.000126113
7.59301e-05
3.86465e-05
1.55482e-05
4.36369e-06
8.21435e-07
1.55411e-06
0.000999909
0.00100924
0.00102383
0.00103951
0.00105361
0.00106506
0.00107365
0.00107959
0.0010831
0.00108442
0.00108377
0.00108135
0.00107737
0.00107206
0.00106564
0.00105833
0.00105034
0.00104191
0.00103325
0.00102457
0.00101608
0.00100795
0.00100031
0.000993231
0.000986708
0.000980624
0.000974658
0.000968201
0.000960491
0.000950603
0.000937453
0.000919831
0.000896432
0.00086588
0.000826714
0.000777668
0.000717465
0.000644955
0.000559588
0.000462165
0.000355953
0.000248182
0.000150659
7.59301e-05
2.98329e-05
8.14715e-06
1.43467e-06
2.31647e-06
0.0013691
0.00137828
0.00139277
0.00140854
0.00142298
0.00143491
0.00144403
0.00145042
0.00145426
0.00145573
0.00145503
0.00145235
0.00144792
0.00144193
0.0014346
0.00142615
0.00141679
0.00140675
0.00139625
0.0013855
0.00137471
0.00136408
0.00135376
0.00134383
0.00133433
0.00132513
0.00131593
0.00130618
0.00129516
0.00128197
0.00126553
0.00124455
0.00121757
0.00118291
0.00113855
0.00108264
0.00101298
0.000927068
0.000822523
0.000698026
0.000554818
0.000399272
0.000248182
0.000126113
4.92368e-05
1.32795e-05
2.24921e-06
3.23516e-06
0.00166752
0.00167551
0.00168828
0.00170246
0.00171576
0.00172704
0.00173585
0.00174213
0.00174594
0.0017474
0.00174667
0.00174391
0.00173929
0.00173299
0.0017252
0.0017161
0.00170589
0.00169475
0.00168288
0.00167048
0.00165775
0.00164488
0.00163202
0.00161929
0.00160674
0.00159432
0.00158178
0.0015687
0.00155451
0.00153844
0.00151951
0.00149653
0.001468
0.00143211
0.00138673
0.00132936
0.00125695
0.00116586
0.00105216
0.000912554
0.000745955
0.000554818
0.000355953
0.000184798
7.26313e-05
1.95293e-05
3.23376e-06
4.29481e-06
0.00190175
0.00190791
0.00191795
0.00192945
0.0019406
0.00195036
0.00195821
0.00196389
0.00196736
0.00196863
0.00196778
0.00196494
0.00196021
0.00195373
0.00194565
0.0019361
0.00192523
0.0019132
0.00190016
0.00188629
0.00187177
0.0018568
0.00184153
0.00182612
0.00181068
0.00179522
0.00177961
0.00176359
0.00174675
0.00172851
0.00170806
0.00168431
0.00165579
0.00162064
0.00157651
0.00152051
0.00144903
0.00135755
0.00124083
0.00109364
0.000912554
0.000698026
0.000462165
0.000246493
9.8241e-05
2.6478e-05
4.32976e-06
5.46287e-06
0.00208236
0.00208645
0.00209335
0.00210162
0.00211006
0.00211779
0.0021242
0.00212892
0.00213176
0.00213262
0.00213151
0.00212848
0.00212357
0.00211688
0.00210847
0.00209846
0.00208693
0.00207401
0.00205983
0.00204453
0.00202831
0.00201135
0.00199385
0.001976
0.00195797
0.00193986
0.00192166
0.00190327
0.00188443
0.00186472
0.00184349
0.00181977
0.00179217
0.00175882
0.0017172
0.00166415
0.00159563
0.00150654
0.00139052
0.00124083
0.00105216
0.000822523
0.000559587
0.000306494
0.000124186
3.36379e-05
5.46622e-06
6.69123e-06
0.00222073
0.00222275
0.00222645
0.00223135
0.00223682
0.00224219
0.00224685
0.00225031
0.00225225
0.00225248
0.0022509
0.0022475
0.00224225
0.00223517
0.00222631
0.0022157
0.0022034
0.00218951
0.00217413
0.00215742
0.00213956
0.00212076
0.00210126
0.0020813
0.00206111
0.00204088
0.00202069
0.00200057
0.00198038
0.00195982
0.00193836
0.00191517
0.00188898
0.00185792
0.00181941
0.00177003
0.00170541
0.00162003
0.00150654
0.00135755
0.00116586
0.000927068
0.000644954
0.000361674
0.000148918
4.05703e-05
6.57641e-06
7.9247e-06
0.00232657
0.00232665
0.0023273
0.00232887
0.00233128
0.00233413
0.0023368
0.00233874
0.00233953
0.00233887
0.0023366
0.00233259
0.00232677
0.00231911
0.00230958
0.0022982
0.00228498
0.00227001
0.00225339
0.00223528
0.00221588
0.00219543
0.00217423
0.00215257
0.00213073
0.00210897
0.00208746
0.00206627
0.00204536
0.00202452
0.00200333
0.00198105
0.00195654
0.00192803
0.00189283
0.00184732
0.00178684
0.00170541
0.00159563
0.00144903
0.00125695
0.00101298
0.000717465
0.00041034
0.000171374
4.69459e-05
7.60773e-06
9.1106e-06
0.00240726
0.0024056
0.00240345
0.00240185
0.00240124
0.00240145
0.00240195
0.00240214
0.00240153
0.00239973
0.0023965
0.00239163
0.00238499
0.0023765
0.00236609
0.00235374
0.00233946
0.00232332
0.00230543
0.00228598
0.0022652
0.00224339
0.00222087
0.00219798
0.00217506
0.00215241
0.00213023
0.00210865
0.00208768
0.00206717
0.00204677
0.00202583
0.00200327
0.00197738
0.00194546
0.00190374
0.00184732
0.00177003
0.00166415
0.00152051
0.00132936
0.00108264
0.000777668
0.00045186
0.000190953
5.25586e-05
8.52518e-06
1.0206e-05
0.00246826
0.00246508
0.00246041
0.00245586
0.00245232
0.00244985
0.00244803
0.00244626
0.00244401
0.00244081
0.00243633
0.00243033
0.00242262
0.00241306
0.00240155
0.00238806
0.0023726
0.00235524
0.00233613
0.00231547
0.00229356
0.00227072
0.00224732
0.00222374
0.00220034
0.00217743
0.00215527
0.00213398
0.00211362
0.0020941
0.0020751
0.00205597
0.00203567
0.00201248
0.00198368
0.00194546
0.00189283
0.00181941
0.0017172
0.00157651
0.00138673
0.00113855
0.000826714
0.000486284
0.000207427
5.73122e-05
9.3105e-06
1.11812e-05
0.00251355
0.00250907
0.00250217
0.00249492
0.00248855
0.0024834
0.00247914
0.00247523
0.00247108
0.00246622
0.00246024
0.00245284
0.0024438
0.00243294
0.00242016
0.0024054
0.00238869
0.00237014
0.00234991
0.00232827
0.00230554
0.00228208
0.0022583
0.00223459
0.00221132
0.0021888
0.0021673
0.00214699
0.0021279
0.00211002
0.00209312
0.00207646
0.00205881
0.0020383
0.00201248
0.00197738
0.00192803
0.00185792
0.00175882
0.00162064
0.00143211
0.00118291
0.000865879
0.000514035
0.000220827
6.1194e-05
9.95883e-06
1.20201e-05
0.00254605
0.00254045
0.0025316
0.00252188
0.00251284
0.002505
0.00249821
0.00249198
0.00248573
0.00247894
0.0024712
0.00246216
0.00245156
0.00243922
0.00242502
0.00240893
0.00239099
0.00237135
0.00235022
0.0023279
0.00230474
0.00228114
0.00225751
0.00223424
0.0022117
0.0021902
0.00217002
0.00215129
0.00213433
0.00211907
0.00210502
0.00209127
0.0020765
0.00205881
0.00203567
0.00200327
0.00195654
0.00188898
0.00179217
0.00165579
0.001468
0.00121757
0.000896432
0.000535735
0.000231343
6.42458e-05
1.04745e-05
1.27173e-05
0.0025679
0.00256135
0.00255078
0.00253882
0.00252722
0.00251673
0.00250733
0.00249862
0.00249005
0.00248112
0.00247138
0.00246048
0.00244814
0.00243419
0.00241851
0.00240111
0.00238205
0.00236153
0.0023398
0.00231718
0.00229405
0.00227082
0.00224788
0.00222564
0.00220444
0.00218453
0.00216638
0.00215032
0.00213642
0.00212439
0.00211357
0.002103
0.00209127
0.00207646
0.00205597
0.00202583
0.00198105
0.00191517
0.00181977
0.00168431
0.00149653
0.00124455
0.000919831
0.000552174
0.000239271
6.6542e-05
1.08676e-05
1.3275e-05
0.00258064
0.00257328
0.00256122
0.0025472
0.00253317
0.00252005
0.00250799
0.00249666
0.00248561
0.00247433
0.0024624
0.00244948
0.00243529
0.00241968
0.00240256
0.00238396
0.00236401
0.00234291
0.00232096
0.00229849
0.00227589
0.00225356
0.00223189
0.00221123
0.00219191
0.00217452
0.00215947
0.00214687
0.00213657
0.00212811
0.0021208
0.00211357
0.00210501
0.00209312
0.00207509
0.00204677
0.00200333
0.00193836
0.00184349
0.00170806
0.00151951
0.00126553
0.000937453
0.000564237
0.000244996
6.8189e-05
1.11537e-05
1.37025e-05
0.0025854
0.00257736
0.00256396
0.00254805
0.00253171
0.00251601
0.00250123
0.0024872
0.00247352
0.00245976
0.00244552
0.00243049
0.00241443
0.00239722
0.0023788
0.00235924
0.00233871
0.00231742
0.00229571
0.00227389
0.00225234
0.00223146
0.00221151
0.00219306
0.00217666
0.00216274
0.00215147
0.00214279
0.00213639
0.00213176
0.00212811
0.00212439
0.00211907
0.00211002
0.0020941
0.00206717
0.00202452
0.00195982
0.00186472
0.00172851
0.00153844
0.00128197
0.000950603
0.000572853
0.000248964
6.93149e-05
1.13521e-05
1.40148e-05
0.00258301
0.00257436
0.00255978
0.00254212
0.00252356
0.00250532
0.00248783
0.00247103
0.00245465
0.00243834
0.00242176
0.00240465
0.00238682
0.00236818
0.00234873
0.00232855
0.00230785
0.00228684
0.00226584
0.00224517
0.00222514
0.00220613
0.00218871
0.00217347
0.0021608
0.00215092
0.00214382
0.00213932
0.00213703
0.00213639
0.00213657
0.00213642
0.00213433
0.0021279
0.00211362
0.00208768
0.00204536
0.00198038
0.00188443
0.00174675
0.00155451
0.00129516
0.000960491
0.000578936
0.000251635
7.00557e-05
1.14841e-05
1.42311e-05
0.00257404
0.00256486
0.0025492
0.00252991
0.00250924
0.00248851
0.00246832
0.00244877
0.0024297
0.00241088
0.00239205
0.00237301
0.00235364
0.00233389
0.00231378
0.00229341
0.00227299
0.00225273
0.00223289
0.00221373
0.00219574
0.00217949
0.00216549
0.00215416
0.00214571
0.00214019
0.0021375
0.00213735
0.00213932
0.00214278
0.00214687
0.00215032
0.00215129
0.00214699
0.00213398
0.00210865
0.00206627
0.00200057
0.00190326
0.00176359
0.0015687
0.00130618
0.0009682
0.000583335
0.000253449
7.05419e-05
1.15704e-05
1.43723e-05
0.00255889
0.00254923
0.00253258
0.00251177
0.00248907
0.00246595
0.00244315
0.00242094
0.0023993
0.00237813
0.00235728
0.00233662
0.00231608
0.00229562
0.00227529
0.00225519
0.00223546
0.00221626
0.00219797
0.00218099
0.00216592
0.0021532
0.00214323
0.00213623
0.00213229
0.00213133
0.00213317
0.0021375
0.00214382
0.00215147
0.00215947
0.00216638
0.00217001
0.0021673
0.00215527
0.00213023
0.00208746
0.00202069
0.00192166
0.00177961
0.00158178
0.00131593
0.000974658
0.000586789
0.000254791
7.08896e-05
1.163e-05
1.44597e-05
0.00253782
0.00252772
0.00251015
0.00248791
0.00246331
0.00243793
0.00241268
0.00238799
0.00236404
0.00234084
0.00231835
0.0022965
0.00227522
0.0022545
0.00223433
0.0022148
0.0021961
0.00217851
0.00216249
0.00214851
0.00213703
0.0021284
0.00212283
0.00212041
0.00212113
0.00212485
0.00213133
0.00214019
0.00215092
0.00216274
0.00217452
0.00218453
0.0021902
0.0021888
0.00217743
0.0021524
0.00210897
0.00204087
0.00193986
0.00179522
0.00159432
0.00132513
0.000980624
0.000589918
0.000255989
7.11973e-05
1.16791e-05
1.45126e-05
0.00251096
0.00250046
0.00248204
0.00245848
0.00243212
0.00240468
0.00237723
0.00235041
0.00232454
0.00229977
0.00227612
0.00225351
0.00223187
0.00221122
0.00219158
0.00217309
0.00215602
0.00214076
0.00212776
0.00211741
0.00211003
0.00210582
0.00210487
0.00210719
0.00211267
0.00212113
0.00213229
0.00214571
0.0021608
0.00217666
0.00219191
0.00220444
0.0022117
0.00221132
0.00220034
0.00217506
0.00213073
0.00206111
0.00195797
0.00181068
0.00160674
0.00133433
0.000986708
0.000593242
0.000257341
7.1559e-05
1.17316e-05
1.45477e-05
0.00247837
0.0024675
0.00244831
0.00242357
0.00239567
0.00236645
0.00233718
0.00230868
0.00228142
0.00225557
0.00223115
0.00220817
0.00218659
0.00216646
0.00214786
0.00213104
0.00211633
0.00210412
0.00209475
0.00208849
0.00208554
0.00208596
0.00208978
0.0020969
0.00210719
0.00212041
0.00213623
0.00215416
0.00217347
0.00219306
0.00221123
0.00222564
0.00223424
0.00223459
0.00222374
0.00219798
0.00215257
0.0020813
0.001976
0.00182612
0.00161929
0.00134383
0.000993231
0.000597005
0.000258946
7.19967e-05
1.17942e-05
1.45781e-05
0.00244004
0.00242885
0.002409
0.00238326
0.0023541
0.00232351
0.00229293
0.00226333
0.00223514
0.00220863
0.0021839
0.00216102
0.00214001
0.00212097
0.00210409
0.00208967
0.00207801
0.00206943
0.00206415
0.00206231
0.00206398
0.00206917
0.00207781
0.00208978
0.00210487
0.00212283
0.00214323
0.00216549
0.00218871
0.00221151
0.00223189
0.00224788
0.0022575
0.0022583
0.00224731
0.00222087
0.00217423
0.00210126
0.00199384
0.00184153
0.00163202
0.00135376
0.00100031
0.000601276
0.000260833
7.252e-05
1.18694e-05
1.46132e-05
0.00239595
0.00238451
0.00236415
0.00233768
0.00230766
0.00227622
0.00224493
0.0022147
0.00218607
0.0021594
0.0021349
0.00211269
0.00209287
0.00207562
0.00206119
0.00204985
0.00204184
0.00203733
0.00203644
0.00203922
0.00204566
0.00205568
0.00206917
0.00208596
0.00210582
0.0021284
0.0021532
0.00217949
0.00220612
0.00223146
0.00225356
0.00227082
0.00228114
0.00228208
0.00227071
0.00224339
0.00219543
0.00212076
0.00201135
0.00185679
0.00164488
0.00136408
0.00100795
0.000606066
0.000263008
7.31319e-05
1.19585e-05
1.46591e-05
0.00234609
0.0023345
0.00231387
0.00228704
0.00225668
0.00222501
0.00219352
0.00216316
0.00213462
0.0021084
0.00208475
0.00206388
0.00204598
0.00203127
0.00201998
0.0020123
0.00200837
0.00200826
0.00201199
0.00201952
0.00203078
0.00204566
0.00206398
0.00208554
0.00211003
0.00213703
0.00216592
0.00219574
0.00222514
0.00225234
0.00227589
0.00229405
0.00230474
0.00230554
0.00229356
0.0022652
0.00221588
0.00213956
0.00202831
0.00187177
0.00165775
0.00137471
0.00101608
0.000611332
0.000265454
7.3827e-05
1.20613e-05
1.47191e-05
0.00229056
0.00227899
0.00225841
0.00223172
0.00220163
0.00217026
0.00213905
0.00210913
0.00208134
0.00205623
0.00203415
0.00201538
0.00200015
0.00198867
0.0019811
0.00197754
0.00197803
0.00198255
0.00199104
0.0020034
0.00201952
0.00203922
0.00206231
0.00208849
0.00211741
0.00214851
0.00218099
0.00221373
0.00224517
0.00227389
0.00229849
0.00231717
0.00232789
0.00232827
0.00231547
0.00228598
0.00223528
0.00215742
0.00204453
0.00188629
0.00167048
0.0013855
0.00102457
0.00061698
0.000268124
7.45922e-05
1.21759e-05
1.4794e-05
0.00222972
0.00221838
0.00219827
0.00217227
0.00214297
0.00211233
0.00208197
0.00205317
0.00202684
0.00200359
0.00198386
0.00196795
0.00195609
0.00194844
0.00194507
0.00194599
0.00195115
0.00196046
0.0019738
0.00199104
0.00201199
0.00203644
0.00206415
0.00209475
0.00212776
0.0021625
0.00219797
0.00223289
0.00226584
0.00229571
0.00232096
0.00233979
0.00235022
0.00234991
0.00233613
0.00230543
0.00225339
0.00217413
0.00205982
0.00190016
0.00168288
0.00139625
0.00103325
0.00062288
0.000270954
7.54087e-05
1.22998e-05
1.4883e-05
0.00216422
0.00215336
0.00213415
0.00210925
0.00208108
0.0020517
0.00202286
0.00199591
0.0019718
0.00195122
0.00193461
0.00192228
0.00191442
0.0019111
0.00191231
0.00191798
0.001928
0.00194221
0.00196046
0.00198255
0.00200826
0.00203733
0.00206943
0.00210412
0.00214076
0.00217851
0.00221626
0.00225273
0.00228684
0.00231742
0.00234291
0.00236153
0.00237135
0.00237014
0.00235524
0.00232331
0.00227001
0.00218951
0.00207401
0.0019132
0.00169475
0.00140675
0.00104191
0.000628879
0.000273867
7.62538e-05
1.24293e-05
1.49835e-05
0.00209494
0.00208475
0.0020666
0.00204305
0.00201645
0.00198898
0.00196239
0.00193806
0.00191699
0.00189985
0.00188711
0.00187901
0.00187567
0.00187708
0.00188318
0.00189381
0.00190882
0.001928
0.00195115
0.00197803
0.00200837
0.00204184
0.00207802
0.00211634
0.00215603
0.00219611
0.00223546
0.00227299
0.00230785
0.00233871
0.00236401
0.00238205
0.00239099
0.00238869
0.0023726
0.00233946
0.00228498
0.0022034
0.00208693
0.00192523
0.00170589
0.00141679
0.00105034
0.000634813
0.000276778
7.7102e-05
1.25606e-05
1.50921e-05
0.00202242
0.00201295
0.00199606
0.00197421
0.00194978
0.00192489
0.00190132
0.00188041
0.00186315
0.00185021
0.00184198
0.00183865
0.00184026
0.00184675
0.00185797
0.00187373
0.00189381
0.00191798
0.00194599
0.00197754
0.0020123
0.00204985
0.00208967
0.00213104
0.00217309
0.0022148
0.00225519
0.00229341
0.00232856
0.00235924
0.00238396
0.00240111
0.00240893
0.0024054
0.00238806
0.00235374
0.0022982
0.0022157
0.00209846
0.0019361
0.0017161
0.00142615
0.00105832
0.000640507
0.000279596
7.79266e-05
1.26892e-05
1.52042e-05
0.00194708
0.00193844
0.00192312
0.00190349
0.00188183
0.00186025
0.00184045
0.00182373
0.00181103
0.00180294
0.00179978
0.00180168
0.00180861
0.00182044
0.00183697
0.00185797
0.00188318
0.00191232
0.00194507
0.0019811
0.00201998
0.0020612
0.0021041
0.00214786
0.00219158
0.00223433
0.00227529
0.00231378
0.00234873
0.0023788
0.00240256
0.00241851
0.00242502
0.00242016
0.00240155
0.00236609
0.00230958
0.00222631
0.00210847
0.00194565
0.0017252
0.0014346
0.00106564
0.000645786
0.000282229
7.86999e-05
1.28108e-05
1.53151e-05
0.0018696
0.00186199
0.00184862
0.00183171
0.00181349
0.00179591
0.00178061
0.00176879
0.00176129
0.00175862
0.00176101
0.00176853
0.00178107
0.00179845
0.00182044
0.00184675
0.00187709
0.00191111
0.00194844
0.00198867
0.00203127
0.00207562
0.00212097
0.00216646
0.00221122
0.0022545
0.00229562
0.00233389
0.00236819
0.00239722
0.00241968
0.00243419
0.00243922
0.00243294
0.00241306
0.0023765
0.00231911
0.00223517
0.00211687
0.00195373
0.00173299
0.00144192
0.00107206
0.000650471
0.000284584
7.93936e-05
1.29206e-05
1.54193e-05
0.00179087
0.00178451
0.00177348
0.00175984
0.00174566
0.00173276
0.00172261
0.00171631
0.00171456
0.00171778
0.00172612
0.00173956
0.00175795
0.00178107
0.00180861
0.00184027
0.00187567
0.00191443
0.00195609
0.00200015
0.00204598
0.00209287
0.00214001
0.00218659
0.00223187
0.00227522
0.00231608
0.00235365
0.00238682
0.00241443
0.00243529
0.00244814
0.00245156
0.0024438
0.00242262
0.00238499
0.00232677
0.00224225
0.00212357
0.00196021
0.00173928
0.00144791
0.00107737
0.000654383
0.000286563
7.99788e-05
1.30138e-05
1.55112e-05
0.00171196
0.00170706
0.00169874
0.00168886
0.00167928
0.00167163
0.00166721
0.00166693
0.0016714
0.00168089
0.0016955
0.00171512
0.00173956
0.00176853
0.00180168
0.00183865
0.00187901
0.00192229
0.00196795
0.00201538
0.00206388
0.00211269
0.00216102
0.00220817
0.00225351
0.0022965
0.00233663
0.00237302
0.00240465
0.00243049
0.00244948
0.00246048
0.00246216
0.00245285
0.00243033
0.00239163
0.00233259
0.00224749
0.00212848
0.00196493
0.00174391
0.00145235
0.00108135
0.000657342
0.000288072
8.04264e-05
1.30857e-05
1.5585e-05
0.00163402
0.00163076
0.00162549
0.0016198
0.00161529
0.00161336
0.00161509
0.00162126
0.00163228
0.00164837
0.00166949
0.0016955
0.00172612
0.00176101
0.00179978
0.00184198
0.00188711
0.00193461
0.00198386
0.00203415
0.00208475
0.0021349
0.00218391
0.00223115
0.00227612
0.00231835
0.00235728
0.00239205
0.00242176
0.00244552
0.00246241
0.00247138
0.0024712
0.00246024
0.00243633
0.0023965
0.0023366
0.0022509
0.00213151
0.00196778
0.00174667
0.00145502
0.00108377
0.000659171
0.000289015
8.0708e-05
1.31315e-05
1.56348e-05
0.00155824
0.00155678
0.00155481
0.00155363
0.00155453
0.00155866
0.00156689
0.00157978
0.00159764
0.00162054
0.00164837
0.00168089
0.00171778
0.00175862
0.00180294
0.00185021
0.00189986
0.00195122
0.00200359
0.00205623
0.0021084
0.0021594
0.00220863
0.00225557
0.00229978
0.00234084
0.00237813
0.00241088
0.00243834
0.00245976
0.00247433
0.00248112
0.00247894
0.00246622
0.00244081
0.00239974
0.00233887
0.00225248
0.00213262
0.00196863
0.0017474
0.00145572
0.00108442
0.000659696
0.000289301
8.07957e-05
1.31464e-05
1.56545e-05
0.00148584
0.00148628
0.00148777
0.00149128
0.00149781
0.00150822
0.00152313
0.00154294
0.00156779
0.00159764
0.00163228
0.0016714
0.00171456
0.00176129
0.00181103
0.00186316
0.00191699
0.0019718
0.00202684
0.00208135
0.00213463
0.00218607
0.00223515
0.00228142
0.00232454
0.00236404
0.0023993
0.00242971
0.00245465
0.00247352
0.00248561
0.00249006
0.00248573
0.00247109
0.00244401
0.00240153
0.00233953
0.00225225
0.00213176
0.00196735
0.00174594
0.00145425
0.0010831
0.000658748
0.000288839
8.06623e-05
1.3126e-05
1.56383e-05
0.00141797
0.00142034
0.00142535
0.00143362
0.00144584
0.00146258
0.00148425
0.00151104
0.00154294
0.00157978
0.00162126
0.00166693
0.00171631
0.00176879
0.00182373
0.00188041
0.00193806
0.00199591
0.00205317
0.00210913
0.00216316
0.0022147
0.00226333
0.00230868
0.00235041
0.00238799
0.00242094
0.00244878
0.00247103
0.0024872
0.00249667
0.00249862
0.00249198
0.00247523
0.00244627
0.00240214
0.00233874
0.00225031
0.00212892
0.00196389
0.00174213
0.00145042
0.00107958
0.000656153
0.000287535
8.02797e-05
1.30654e-05
1.55791e-05
0.00135573
0.00135998
0.00136844
0.0013814
0.00139922
0.00142222
0.00145056
0.00148425
0.00152313
0.00156689
0.00161509
0.00166721
0.00172261
0.00178061
0.00184045
0.00190132
0.00196239
0.00202286
0.00208197
0.00213905
0.00219353
0.00224493
0.00229294
0.00233719
0.00237724
0.00241268
0.00244316
0.00246833
0.00248783
0.00250123
0.00250799
0.00250734
0.00249821
0.00247914
0.00244803
0.00240195
0.0023368
0.00224685
0.0021242
0.00195821
0.00173585
0.00144403
0.00107365
0.000651712
0.000285284
7.96157e-05
1.29589e-05
1.54687e-05
0.00130004
0.00130609
0.00131784
0.00133526
0.00135844
0.00138744
0.00142222
0.00146258
0.00150822
0.00155866
0.00161336
0.00167163
0.00173276
0.00179591
0.00186025
0.00192489
0.00198898
0.0020517
0.00211233
0.00217026
0.00222501
0.00227622
0.00232352
0.00236645
0.00240468
0.00243793
0.00246595
0.00248851
0.00250532
0.00251601
0.00252006
0.00251673
0.002505
0.0024834
0.00244985
0.00240145
0.00233413
0.00224219
0.00211779
0.00195037
0.00172704
0.00143491
0.00106506
0.0006452
0.000281962
7.86325e-05
1.27999e-05
1.52963e-05
0.00125174
0.00125943
0.00127418
0.00129572
0.00132386
0.00135844
0.00139922
0.00144584
0.00149781
0.00155453
0.00161529
0.00167928
0.00174566
0.00181349
0.00188183
0.00194978
0.00201645
0.00208108
0.00214297
0.00220163
0.00225668
0.00230766
0.00235411
0.00239567
0.00243213
0.00246331
0.00248907
0.00250924
0.00252357
0.00253171
0.00253317
0.00252722
0.00251284
0.00248856
0.00245232
0.00240124
0.00233129
0.00223682
0.00211007
0.0019406
0.00171576
0.00142298
0.00105362
0.000636433
0.000277463
7.72972e-05
1.25821e-05
1.50509e-05
0.00121153
0.00122065
0.00123805
0.0012632
0.00129572
0.00133526
0.0013814
0.00143362
0.00149128
0.00155362
0.0016198
0.00168886
0.00175984
0.00183171
0.00190348
0.00197421
0.00204304
0.00210925
0.00217227
0.00223171
0.00228704
0.00233768
0.00238326
0.00242357
0.00245848
0.00248791
0.00251177
0.00252992
0.00254213
0.00254806
0.0025472
0.00253882
0.00252189
0.00249492
0.00245587
0.00240185
0.00232887
0.00223135
0.00210163
0.00192945
0.00170246
0.00140854
0.00103951
0.000625496
0.000271822
7.562e-05
1.23064e-05
1.47293e-05
0.0011801
0.00119039
0.00120994
0.00123805
0.00127418
0.00131783
0.00136844
0.00142535
0.00148777
0.00155481
0.00162549
0.00169874
0.00177348
0.00184861
0.00192312
0.00199606
0.0020666
0.00213415
0.00219827
0.00225841
0.00231386
0.00236415
0.002409
0.00244831
0.00248204
0.00251015
0.00253258
0.0025492
0.00255978
0.00256396
0.00256122
0.00255079
0.0025316
0.00250217
0.00246041
0.00240345
0.00232731
0.00222646
0.00209335
0.00191796
0.00168828
0.00139277
0.00102383
0.000613221
0.00026547
7.37289e-05
1.19934e-05
1.43531e-05
0.00115816
0.00116929
0.00119039
0.00122065
0.00125943
0.00130609
0.00135998
0.00142034
0.00148627
0.00155678
0.00163076
0.00170706
0.00178451
0.00186199
0.00193844
0.00201295
0.00208475
0.00215335
0.00221838
0.00227899
0.0023345
0.00238451
0.00242885
0.0024675
0.00250046
0.00252772
0.00254923
0.00256486
0.00257436
0.00257736
0.00257328
0.00256135
0.00254045
0.00250907
0.00246508
0.00240561
0.00232665
0.00222275
0.00208645
0.00190791
0.00167551
0.00137829
0.00100924
0.000601727
0.000259516
7.19558e-05
1.16985e-05
1.39902e-05
0.00114659
0.00115816
0.0011801
0.00121153
0.00125174
0.00130004
0.00135572
0.00141797
0.00148583
0.00155824
0.00163402
0.00171196
0.00179087
0.00186959
0.00194708
0.00202242
0.00209494
0.00216422
0.00222972
0.00229056
0.00234608
0.00239595
0.00244004
0.00247837
0.00251095
0.00253781
0.00255889
0.00257404
0.00258301
0.0025854
0.00258064
0.0025679
0.00254605
0.00251355
0.00246826
0.00240726
0.00232657
0.00222073
0.00208236
0.00190175
0.00166753
0.00136911
0.000999913
0.000594354
0.000255697
7.0819e-05
1.15087e-05
1.37529e-05
)
;

boundaryField
{
    inlet
    {
        type            cyclic;
    }
    outlet
    {
        type            cyclic;
    }
    walls
    {
        type            kLowReWallFunction;
        value           nonuniform List<scalar> 
96
(
8.80186e-15
2.21303e-13
1.43896e-12
5.20789e-12
1.3929e-11
3.0934e-11
6.03116e-11
1.06249e-10
1.71836e-10
2.57708e-10
3.6136e-10
4.77465e-10
5.99029e-10
7.18825e-10
8.30581e-10
9.29594e-10
1.01281e-09
1.079e-09
1.12868e-09
1.16373e-09
1.18692e-09
1.20137e-09
1.21017e-09
1.21602e-09
1.22111e-09
1.22699e-09
1.23469e-09
1.2448e-09
1.2575e-09
1.27265e-09
1.28988e-09
1.30861e-09
1.3281e-09
1.34751e-09
1.36589e-09
1.3822e-09
1.39536e-09
1.40427e-09
1.40782e-09
1.4049e-09
1.39431e-09
1.37464e-09
1.34422e-09
1.3015e-09
1.24654e-09
1.18378e-09
1.12476e-09
1.08697e-09
1.08695e-09
1.12475e-09
1.18377e-09
1.24654e-09
1.3015e-09
1.34423e-09
1.37465e-09
1.39432e-09
1.40491e-09
1.40783e-09
1.40428e-09
1.39537e-09
1.38221e-09
1.3659e-09
1.34752e-09
1.32811e-09
1.30861e-09
1.28988e-09
1.27265e-09
1.2575e-09
1.2448e-09
1.23469e-09
1.22699e-09
1.22111e-09
1.21602e-09
1.21017e-09
1.20137e-09
1.18692e-09
1.16373e-09
1.12868e-09
1.079e-09
1.01281e-09
9.29595e-10
8.30582e-10
7.18825e-10
5.99029e-10
4.77465e-10
3.6136e-10
2.57709e-10
1.71836e-10
1.06249e-10
6.03117e-11
3.0934e-11
1.3929e-11
5.20789e-12
1.43896e-12
2.21303e-13
8.80186e-15
)
;
    }
    symPlanes
    {
        type            symmetry;
    }
}


// ************************************************************************* //
