/*--------------------------------*- C++ -*----------------------------------*\
| =========                 |                                                 |
| \\      /  F ield         | OpenFOAM: The Open Source CFD Toolbox           |
|  \\    /   O peration     | Version:  2312                                  |
|   \\  /    A nd           | Website:  www.openfoam.com                      |
|    \\/     M anipulation  |                                                 |
\*---------------------------------------------------------------------------*/
FoamFile
{
    version     2.0;
    format      ascii;
    arch        "LSB;label=32;scalar=64";
    class       volScalarField;
    location    "1919";
    object      nut;
}
// * * * * * * * * * * * * * * * * * * * * * * * * * * * * * * * * * * * * * //

dimensions      [0 2 -1 0 0 0 0];

internalField   nonuniform List<scalar> 
2304
(
5.57803e-09
5.67432e-09
5.82151e-09
5.9741e-09
6.10456e-09
6.20409e-09
6.274e-09
6.31879e-09
6.34278e-09
6.34939e-09
6.34136e-09
6.32118e-09
6.29126e-09
6.25397e-09
6.2117e-09
6.16674e-09
6.12124e-09
6.07722e-09
6.03645e-09
6.00036e-09
5.96995e-09
5.94563e-09
5.92702e-09
5.91278e-09
5.90044e-09
5.88621e-09
5.86476e-09
5.82932e-09
5.77202e-09
5.68432e-09
5.55766e-09
5.38427e-09
5.15805e-09
4.87527e-09
4.53504e-09
4.1395e-09
3.69521e-09
3.21422e-09
2.71393e-09
2.21572e-09
1.74196e-09
1.31217e-09
9.39554e-10
6.30344e-10
3.85358e-10
2.02523e-10
7.94073e-11
1.58335e-11
2.76622e-08
2.81183e-08
2.88269e-08
2.95784e-08
3.02399e-08
3.07622e-08
3.11433e-08
3.13984e-08
3.15435e-08
3.15923e-08
3.15563e-08
3.14466e-08
3.12741e-08
3.10505e-08
3.07871e-08
3.04955e-08
3.01868e-08
2.98719e-08
2.95611e-08
2.9264e-08
2.89891e-08
2.87431e-08
2.85301e-08
2.83511e-08
2.82033e-08
2.80803e-08
2.79648e-08
2.78245e-08
2.76207e-08
2.7308e-08
2.68365e-08
2.61548e-08
2.5216e-08
2.39823e-08
2.2429e-08
2.05446e-08
1.83401e-08
1.58588e-08
1.3185e-08
1.04457e-08
7.8026e-09
5.42762e-09
3.46201e-09
1.98139e-09
9.79658e-10
3.84467e-10
1.12299e-10
7.94073e-11
5.05347e-07
5.13178e-07
5.25385e-07
5.38396e-07
5.49932e-07
5.59118e-07
5.65886e-07
5.70462e-07
5.73102e-07
5.74028e-07
5.73429e-07
5.71491e-07
5.68403e-07
5.64359e-07
5.59557e-07
5.54194e-07
5.48466e-07
5.42563e-07
5.3667e-07
5.30967e-07
5.25612e-07
5.2074e-07
5.16448e-07
5.12778e-07
5.09719e-07
5.07213e-07
5.05251e-07
5.03088e-07
5.00033e-07
4.95268e-07
4.87861e-07
4.76828e-07
4.61222e-07
4.40234e-07
4.13267e-07
3.79928e-07
3.4021e-07
2.94722e-07
2.44906e-07
1.93151e-07
1.42685e-07
9.71138e-08
5.95113e-08
3.15251e-08
1.31256e-08
3.28518e-09
3.84467e-10
2.02523e-10
3.65964e-06
3.70914e-06
3.78617e-06
3.86813e-06
3.94074e-06
3.9986e-06
4.04133e-06
4.07033e-06
4.08718e-06
4.09319e-06
4.08952e-06
4.07726e-06
4.05757e-06
4.03162e-06
4.0006e-06
3.96575e-06
3.92827e-06
3.8894e-06
3.85033e-06
3.81226e-06
3.77629e-06
3.74341e-06
3.71436e-06
3.68958e-06
3.6692e-06
3.65325e-06
3.64158e-06
3.62954e-06
3.61269e-06
3.58565e-06
3.5421e-06
3.47511e-06
3.37766e-06
3.24325e-06
3.06637e-06
2.84249e-06
2.56925e-06
2.2483e-06
1.88735e-06
1.50182e-06
1.11508e-06
7.55903e-07
4.51563e-07
2.21329e-07
7.56448e-08
1.31256e-08
9.79657e-10
3.85358e-10
1.3429e-05
1.35692e-05
1.37868e-05
1.40177e-05
1.42218e-05
1.43846e-05
1.45053e-05
1.45876e-05
1.46357e-05
1.46531e-05
1.46426e-05
1.46069e-05
1.45491e-05
1.44722e-05
1.43793e-05
1.4274e-05
1.41595e-05
1.40397e-05
1.39181e-05
1.37986e-05
1.36852e-05
1.35812e-05
1.34899e-05
1.34135e-05
1.33535e-05
1.3311e-05
1.32843e-05
1.32614e-05
1.32291e-05
1.31706e-05
1.30654e-05
1.28898e-05
1.2618e-05
1.22238e-05
1.16813e-05
1.09666e-05
1.00595e-05
8.95024e-06
7.64771e-06
6.18881e-06
4.64669e-06
3.13431e-06
1.7953e-06
7.86774e-07
2.21329e-07
3.15251e-08
1.98139e-09
6.30344e-10
3.13224e-05
3.15566e-05
3.19194e-05
3.23026e-05
3.26407e-05
3.29102e-05
3.31104e-05
3.32476e-05
3.33276e-05
3.33552e-05
3.33341e-05
3.3268e-05
3.31611e-05
3.3018e-05
3.28439e-05
3.26444e-05
3.24257e-05
3.21948e-05
3.19591e-05
3.17268e-05
3.15065e-05
3.13067e-05
3.11356e-05
3.1e-05
3.09048e-05
3.08536e-05
3.08417e-05
3.08498e-05
3.08528e-05
3.08168e-05
3.06984e-05
3.04451e-05
2.99969e-05
2.92876e-05
2.82457e-05
2.68047e-05
2.49007e-05
2.24812e-05
1.95224e-05
1.60516e-05
1.21799e-05
8.16326e-06
4.48353e-06
1.7953e-06
4.51563e-07
5.95113e-08
3.462e-09
9.39554e-10
5.52707e-05
5.55198e-05
5.58981e-05
5.6287e-05
5.66195e-05
5.6878e-05
5.70662e-05
5.71909e-05
5.72561e-05
5.72625e-05
5.72103e-05
5.71003e-05
5.69345e-05
5.67162e-05
5.64507e-05
5.61447e-05
5.58066e-05
5.54471e-05
5.50791e-05
5.47177e-05
5.43797e-05
5.40831e-05
5.38456e-05
5.36837e-05
5.36099e-05
5.36294e-05
5.37364e-05
5.39092e-05
5.41105e-05
5.42848e-05
5.43566e-05
5.4229e-05
5.37852e-05
5.28872e-05
5.12613e-05
4.88629e-05
4.56205e-05
4.14261e-05
3.62093e-05
2.99684e-05
2.28322e-05
1.52195e-05
8.16326e-06
3.13431e-06
7.55902e-07
9.71137e-08
5.42761e-09
1.31217e-09
8.20637e-05
8.23855e-05
8.28621e-05
8.33325e-05
8.37132e-05
8.39913e-05
8.41803e-05
8.42933e-05
8.43353e-05
8.43055e-05
8.42015e-05
8.40219e-05
8.37677e-05
8.34425e-05
8.30533e-05
8.26099e-05
8.21254e-05
8.16168e-05
8.11047e-05
8.06132e-05
8.01691e-05
7.98005e-05
7.95351e-05
7.9397e-05
7.94026e-05
7.95569e-05
7.9845e-05
8.02287e-05
8.06417e-05
8.09864e-05
8.11306e-05
8.09099e-05
8.01331e-05
7.85912e-05
7.60621e-05
7.23337e-05
6.72494e-05
6.07448e-05
5.2882e-05
4.38695e-05
3.40281e-05
2.28322e-05
1.21799e-05
4.64668e-06
1.11508e-06
1.42685e-07
7.80259e-09
1.74196e-09
0.000112537
0.000112962
0.000113577
0.000114159
0.000114597
0.000114886
0.000115055
0.00011513
0.000115119
0.000115021
0.000114833
0.000114551
0.000114175
0.000113711
0.000113168
0.000112562
0.000111913
0.000111246
0.000110593
0.000109988
0.000109471
0.00010908
0.000108852
0.000108817
0.000108994
0.000109379
0.00010994
0.000110605
0.00011126
0.000111742
0.000111839
0.000111298
0.000109844
0.0001072
0.000103108
9.7336e-05
8.97401e-05
8.03234e-05
6.92778e-05
5.69769e-05
4.38695e-05
2.99684e-05
1.60516e-05
6.1888e-06
1.50182e-06
1.9315e-07
1.04457e-08
2.21572e-09
0.000146421
0.000146979
0.000147773
0.000148496
0.000149
0.000149286
0.000149407
0.000149404
0.000149299
0.000149091
0.000148776
0.00014835
0.000147814
0.000147178
0.000146455
0.000145668
0.000144848
0.00014403
0.000143259
0.000142582
0.00014205
0.000141714
0.000141618
0.000141793
0.000142253
0.000142978
0.000143902
0.000144905
0.000145801
0.000146341
0.000146211
0.000145048
0.000142478
0.000138167
0.000131848
0.000123347
0.000112628
9.981e-05
8.52821e-05
6.92778e-05
5.2882e-05
3.62093e-05
1.95223e-05
7.6477e-06
1.88735e-06
2.44906e-07
1.3185e-08
2.71393e-09
0.000183088
0.000183813
0.000184834
0.000185739
0.00018633
0.000186608
0.000186654
0.000186535
0.000186288
0.00018592
0.000185428
0.000184812
0.000184076
0.000183234
0.000182308
0.000181333
0.000180349
0.000179407
0.000178564
0.000177884
0.000177429
0.00017726
0.000177423
0.000177948
0.000178829
0.000180012
0.000181383
0.000182753
0.00018385
0.00018432
0.000183738
0.000181602
0.000177389
0.000170713
0.000161393
0.000149425
0.00013503
0.000118688
9.981e-05
8.03234e-05
6.07447e-05
4.1426e-05
2.24811e-05
8.95023e-06
2.24829e-06
2.94721e-07
1.58588e-08
3.21422e-09
0.000222085
0.000223006
0.000224298
0.00022543
0.000226137
0.000226414
0.000226366
0.000226095
0.00022566
0.000225082
0.000224366
0.000223517
0.000222546
0.000221478
0.000220344
0.000219193
0.000218079
0.000217068
0.000216234
0.000215651
0.000215395
0.000215527
0.000216094
0.000217107
0.000218527
0.000220244
0.000222088
0.000223788
0.000224994
0.000225207
0.000223867
0.000220327
0.000213865
0.000203996
0.000190783
0.000174583
0.000155896
0.00013503
0.000112628
8.97401e-05
6.72494e-05
4.56204e-05
2.49007e-05
1.00595e-05
2.56924e-06
3.40209e-07
1.83401e-08
3.69521e-09
0.000263029
0.000264164
0.000265762
0.000267163
0.000268021
0.000268312
0.000268164
0.000267714
0.000267051
0.000266219
0.000265236
0.000264121
0.000262896
0.000261597
0.000260273
0.000258984
0.000257804
0.000256814
0.000256101
0.000255751
0.000255844
0.000256438
0.000257561
0.000259186
0.000261226
0.000263502
0.00026578
0.000267704
0.000268812
0.000268466
0.000265803
0.000260107
0.000250728
0.000237046
0.000219169
0.000198091
0.000174583
0.000149425
0.000123347
9.73359e-05
7.23337e-05
4.88629e-05
2.68047e-05
1.09665e-05
2.84249e-06
3.79928e-07
2.05446e-08
4.13949e-09
0.000305584
0.000306941
0.000308866
0.00031057
0.000311614
0.000311942
0.000311697
0.000311054
0.000310137
0.000309019
0.000307744
0.000306347
0.000304869
0.000303363
0.000301895
0.000300544
0.0002994
0.000298559
0.00029812
0.000298173
0.000298792
0.000300021
0.00030183
0.000304154
0.000306839
0.000309675
0.000312254
0.000314193
0.00031467
0.000312954
0.000307394
0.000297589
0.000284473
0.00026786
0.000245497
0.000219169
0.000190783
0.000161392
0.000131848
0.000103108
7.60621e-05
5.12612e-05
2.82456e-05
1.16813e-05
3.06637e-06
4.13266e-07
2.24289e-08
4.53504e-09
0.000349445
0.000351022
0.000353281
0.000355307
0.000356569
0.000356964
0.000356642
0.000355809
0.000354631
0.000353221
0.000351653
0.00034999
0.000348295
0.000346643
0.00034512
0.000343826
0.000342866
0.00034235
0.00034238
0.000343037
0.000344366
0.000346373
0.000348968
0.000352041
0.000355351
0.000358687
0.00036135
0.000362708
0.000360241
0.000353307
0.000343313
0.000329915
0.000312883
0.000292146
0.00026786
0.000237046
0.000203996
0.000170713
0.000138167
0.0001072
7.85912e-05
5.28871e-05
2.92876e-05
1.22238e-05
3.24325e-06
4.40233e-07
2.39823e-08
4.87527e-09
0.00039436
0.000396146
0.00039873
0.000401087
0.000402592
0.00040309
0.000402724
0.000401729
0.000400317
0.000398642
0.000396821
0.000394948
0.000393119
0.000391434
0.000390001
0.000388939
0.000388369
0.0003884
0.000389126
0.000390583
0.000392777
0.000395652
0.00039915
0.000402977
0.000406892
0.000410333
0.000411926
0.000407508
0.00040042
0.000390221
0.000376533
0.000359112
0.000337866
0.000312883
0.000284473
0.000250727
0.000213865
0.000177389
0.000142478
0.000109844
8.01331e-05
5.37851e-05
2.99969e-05
1.2618e-05
3.37766e-06
4.61222e-07
2.5216e-08
5.15804e-09
0.000440122
0.000442095
0.000444982
0.000447667
0.000449436
0.000450079
0.000449724
0.000448628
0.000447046
0.000445183
0.000443202
0.00044124
0.000439425
0.000437887
0.000436757
0.000436168
0.000436244
0.00043706
0.000438697
0.000441122
0.000444335
0.000448138
0.000452588
0.000457099
0.000461399
0.00046057
0.000455978
0.0004487
0.000438253
0.000424255
0.00040644
0.000384708
0.000359112
0.000329915
0.000297589
0.000260107
0.000220327
0.000181602
0.000145048
0.000111298
8.09099e-05
5.4229e-05
3.04451e-05
1.28898e-05
3.4751e-06
4.76828e-07
2.61548e-08
5.38426e-09
0.000486548
0.000488683
0.000491843
0.000494842
0.000496895
0.000497736
0.000497472
0.000496376
0.000494747
0.000492841
0.000490872
0.000489021
0.000487453
0.000486328
0.000485786
0.000485952
0.000486941
0.000488765
0.000491473
0.000495065
0.000499387
0.000504217
0.000509279
0.000512983
0.000510425
0.00050564
0.000498121
0.000487392
0.000473058
0.000454842
0.000432621
0.00040644
0.000376533
0.000343313
0.000307394
0.000265803
0.000223867
0.000183738
0.000146211
0.000111839
8.11305e-05
5.43565e-05
3.06984e-05
1.30654e-05
3.5421e-06
4.87861e-07
2.68365e-08
5.55766e-09
0.000533472
0.000535742
0.00053914
0.00054244
0.000544804
0.000545915
0.000545859
0.000544924
0.000543446
0.000541733
0.000540049
0.000538616
0.000537621
0.000537245
0.000537625
0.000538833
0.000540965
0.000544078
0.000547929
0.000552748
0.000557967
0.000563796
0.00056421
0.000561451
0.000556444
0.000548658
0.000537618
0.000522926
0.000504297
0.000481593
0.000454842
0.000424255
0.000390221
0.000353307
0.000312954
0.000268466
0.000225207
0.000184319
0.000146341
0.000111742
8.09863e-05
5.42848e-05
3.08168e-05
1.31706e-05
3.58565e-06
4.95267e-07
2.7308e-08
5.68432e-09
0.000580744
0.00058312
0.000586727
0.000590323
0.000593039
0.000594526
0.000594852
0.000594317
0.000593292
0.000592126
0.000591114
0.00059051
0.000590498
0.000591234
0.000592898
0.000595472
0.000598878
0.000603381
0.0006083
0.000613815
0.000617691
0.000616535
0.000613593
0.000608344
0.000600275
0.000588907
0.000573843
0.000554792
0.000531606
0.000504297
0.000473058
0.000438253
0.00040042
0.000360241
0.00031467
0.000268812
0.000224994
0.00018385
0.000145801
0.00011126
8.06417e-05
5.41105e-05
3.08528e-05
1.32291e-05
3.61269e-06
5.00032e-07
2.76206e-08
5.77202e-09
0.000628221
0.000630683
0.000634479
0.000638385
0.00064153
0.00064355
0.000644509
0.000644719
0.000644569
0.000644428
0.000644585
0.000645302
0.00064677
0.000648979
0.000652152
0.000656229
0.000660754
0.000665823
0.000671105
0.00067118
0.000669885
0.00066676
0.000661277
0.000652923
0.000641226
0.000625786
0.000606311
0.000582645
0.000554792
0.000522926
0.000487392
0.0004487
0.000407508
0.000362708
0.000314193
0.000267704
0.000223788
0.000182753
0.000144905
0.000110605
8.02286e-05
5.39091e-05
3.08498e-05
1.32614e-05
3.62954e-06
5.03088e-07
2.78244e-08
5.82932e-09
0.000675771
0.000678309
0.000682297
0.000686563
0.000690264
0.000693051
0.000694995
0.00069641
0.00069768
0.000699156
0.000701085
0.000703592
0.000706883
0.000710718
0.000714946
0.000719711
0.000724506
0.000725509
0.000725521
0.000724142
0.000720858
0.000715159
0.000706536
0.00069452
0.000678714
0.000658824
0.000634691
0.000606311
0.000573843
0.000537618
0.000498121
0.000455978
0.000411926
0.00036135
0.000312254
0.00026578
0.000222088
0.000181383
0.000143902
0.00010994
7.9845e-05
5.37363e-05
3.08417e-05
1.32843e-05
3.64158e-06
5.05251e-07
2.79648e-08
5.86476e-09
0.000723278
0.000725899
0.000730119
0.000734847
0.00073931
0.000743198
0.000746588
0.000749771
0.000753124
0.000756816
0.00076095
0.000765247
0.000769736
0.000774546
0.000777737
0.000779481
0.00078055
0.000780598
0.000779163
0.000775763
0.000769885
0.000761025
0.000748717
0.000732568
0.000712286
0.000687708
0.000658824
0.000625786
0.000588908
0.000548658
0.00050564
0.00046057
0.000410333
0.000358687
0.000309675
0.000263502
0.000220244
0.000180012
0.000142978
0.000109379
7.95568e-05
5.36294e-05
3.08536e-05
1.3311e-05
3.65325e-06
5.07213e-07
2.80803e-08
5.88621e-09
0.000770653
0.000773394
0.000777937
0.000783312
0.000788848
0.000794281
0.000799668
0.000805282
0.000811283
0.000817222
0.000822903
0.000827619
0.000830353
0.000832807
0.000834807
0.000836064
0.000836201
0.000834785
0.000831328
0.000825324
0.000816275
0.000803719
0.000787267
0.000766627
0.000741638
0.000712286
0.000678714
0.000641226
0.000600275
0.000556444
0.000510425
0.000461399
0.000406892
0.000355351
0.000306839
0.000261226
0.000218527
0.000178829
0.000142253
0.000108994
7.94026e-05
5.36098e-05
3.09048e-05
1.33535e-05
3.66919e-06
5.09718e-07
2.82033e-08
5.90044e-09
0.000817873
0.00082081
0.000825848
0.000832165
0.000839204
0.00084672
0.000854751
0.000863328
0.000871517
0.000877885
0.000881531
0.000884873
0.000887837
0.000890228
0.000891775
0.000892112
0.000890804
0.000887373
0.000881318
0.000872146
0.000859402
0.000842701
0.000821755
0.000796402
0.000766627
0.000732568
0.00069452
0.000652923
0.000608344
0.000561451
0.000512983
0.000457099
0.000402977
0.000352041
0.000304154
0.000259186
0.000217107
0.000177948
0.000141792
0.000108817
7.93969e-05
5.36837e-05
3.1e-05
1.34135e-05
3.68958e-06
5.12778e-07
2.83511e-08
5.91278e-09
0.000865048
0.000868318
0.000874129
0.000881815
0.000890895
0.000901136
0.000912366
0.000923251
0.000929978
0.000934604
0.000938786
0.000942438
0.000945393
0.000947383
0.000948051
0.000946973
0.000943677
0.000937668
0.000928463
0.000915611
0.000898734
0.000877548
0.000851894
0.000821755
0.000787267
0.000748717
0.000706536
0.000661277
0.000613593
0.00056421
0.000509279
0.000452588
0.00039915
0.000348968
0.00030183
0.000257561
0.000216094
0.000177423
0.000141618
0.000108852
7.9535e-05
5.38455e-05
3.11356e-05
1.34899e-05
3.71435e-06
5.16447e-07
2.85301e-08
5.92702e-09
0.000912553
0.000916367
0.000923347
0.000932944
0.000944715
0.000958278
0.000972067
0.000980539
0.000986375
0.000991617
0.000996183
0.000999905
0.00100252
0.0010037
0.001003
0.000999978
0.000994141
0.000985014
0.000972157
0.000955196
0.000933854
0.000907977
0.000877548
0.000842701
0.000803719
0.000761025
0.000715159
0.00066676
0.000616535
0.000563796
0.000504217
0.000448138
0.000395652
0.000346373
0.00030002
0.000256438
0.000215527
0.00017726
0.000141714
0.00010908
7.98004e-05
5.4083e-05
3.13067e-05
1.35812e-05
3.7434e-06
5.20739e-07
2.87431e-08
5.94563e-09
0.000961184
0.00096581
0.000974461
0.000986626
0.00100169
0.00101804
0.00102925
0.00103642
0.00104293
0.00104862
0.00105334
0.0010568
0.00105868
0.00105855
0.00105597
0.00105046
0.00104155
0.00102881
0.00101188
0.000990489
0.000964484
0.000933854
0.000898734
0.000859402
0.000816275
0.000769885
0.000720858
0.000669885
0.000617691
0.000557967
0.000499387
0.000444335
0.000392777
0.000344366
0.000298792
0.000255843
0.000215395
0.000177429
0.00014205
0.000109471
8.0169e-05
5.43797e-05
3.15064e-05
1.36851e-05
3.77629e-06
5.25611e-07
2.89891e-08
5.96995e-09
0.0010123
0.00101801
0.00102895
0.00104419
0.00106201
0.00107604
0.00108451
0.00109236
0.00109936
0.00110526
0.00110979
0.00111259
0.00111325
0.00111131
0.00110631
0.00109779
0.00108532
0.00106855
0.00104723
0.00102121
0.000990489
0.000955196
0.000915611
0.000872146
0.000825324
0.000775763
0.000724142
0.00067118
0.000613815
0.000552749
0.000495065
0.000441122
0.000390583
0.000343037
0.000298172
0.000255751
0.000215651
0.000177884
0.000142581
0.000109988
8.06131e-05
5.47177e-05
3.17267e-05
1.37986e-05
3.81225e-06
5.30966e-07
2.9264e-08
6.00035e-09
0.00106791
0.00107491
0.00108838
0.00110573
0.00112126
0.0011307
0.00113978
0.00114812
0.00115535
0.00116113
0.00116506
0.00116672
0.00116564
0.00116135
0.0011534
0.00114137
0.00112493
0.00110383
0.00107793
0.00104723
0.00101188
0.000972157
0.000928462
0.000881317
0.000831328
0.000779162
0.000725521
0.000671105
0.0006083
0.000547929
0.000491473
0.000438697
0.000389126
0.00034238
0.00029812
0.000256101
0.000216234
0.000178564
0.000143259
0.000110593
8.11046e-05
5.50791e-05
3.1959e-05
1.39181e-05
3.85032e-06
5.3667e-07
2.9561e-08
6.03644e-09
0.00112971
0.00113783
0.00115188
0.00116568
0.00117542
0.00118535
0.00119485
0.0012034
0.00121052
0.00121575
0.0012186
0.00121859
0.00121522
0.00120805
0.00119666
0.00118071
0.00115998
0.00113435
0.00110382
0.00106855
0.00102881
0.000985014
0.000937668
0.000887372
0.000834785
0.000780598
0.000725509
0.000665823
0.000603381
0.000544078
0.000488765
0.00043706
0.0003884
0.00034235
0.000298559
0.000256814
0.000217068
0.000179406
0.00014403
0.000111246
8.16167e-05
5.5447e-05
3.21948e-05
1.40396e-05
3.88939e-06
5.42561e-07
2.98719e-08
6.07721e-09
0.00119536
0.00120341
0.00121048
0.00121954
0.00122961
0.00123983
0.00124947
0.00125787
0.00126444
0.00126862
0.00126985
0.00126761
0.00126141
0.00125084
0.00123558
0.0012154
0.00119019
0.00115998
0.00112493
0.00108532
0.00104155
0.000994141
0.000943676
0.000890803
0.000836201
0.000780549
0.000724506
0.000660754
0.000598878
0.000540965
0.000486941
0.000436244
0.000388369
0.000342866
0.0002994
0.000257804
0.000218079
0.000180349
0.000144848
0.000111913
8.21253e-05
5.58065e-05
3.24257e-05
1.41595e-05
3.92826e-06
5.48464e-07
3.01868e-08
6.12123e-09
0.00125301
0.00125708
0.00126427
0.00127349
0.00128368
0.00129391
0.00130331
0.00131112
0.00131664
0.00131921
0.00131823
0.00131318
0.00130363
0.00128922
0.00126976
0.00124514
0.0012154
0.00118071
0.00114137
0.00109778
0.00105046
0.000999977
0.000946973
0.000892111
0.000836064
0.00077948
0.000719711
0.000656229
0.000595472
0.000538833
0.000485952
0.000436168
0.000388939
0.000343826
0.000300544
0.000258984
0.000219193
0.000181333
0.000145668
0.000112562
8.26098e-05
5.61446e-05
3.26443e-05
1.42739e-05
3.96574e-06
5.54193e-07
3.04955e-08
6.16672e-09
0.00130691
0.001311
0.00131819
0.00132737
0.00133742
0.00134729
0.00135601
0.0013627
0.00136658
0.00136693
0.00136315
0.00135474
0.00134136
0.00132277
0.00129889
0.00126976
0.00123558
0.00119666
0.0011534
0.00110631
0.00105597
0.001003
0.000948051
0.000891775
0.000834807
0.000777737
0.000714945
0.000652152
0.000592898
0.000537625
0.000485786
0.000436757
0.000390001
0.00034512
0.000301895
0.000260273
0.000220344
0.000182308
0.000146455
0.000113168
8.30532e-05
5.64507e-05
3.28438e-05
1.43793e-05
4.00059e-06
5.59555e-07
3.07871e-08
6.21169e-09
0.00136103
0.00136504
0.00137207
0.00138095
0.00139051
0.00139957
0.00140709
0.00141207
0.00141368
0.00141119
0.00140403
0.00139177
0.00137417
0.00135115
0.00132277
0.00128922
0.00125084
0.00120805
0.00116135
0.00111131
0.00105855
0.00100369
0.000947382
0.000890228
0.000832807
0.000774545
0.000710717
0.000648978
0.000591234
0.000537245
0.000486328
0.000437887
0.000391434
0.000346643
0.000303363
0.000261597
0.000221477
0.000183234
0.000147177
0.00011371
8.34425e-05
5.67162e-05
3.3018e-05
1.44721e-05
4.0316e-06
5.64357e-07
3.10504e-08
6.25396e-09
0.00141516
0.00141899
0.00142564
0.00143392
0.00144255
0.0014503
0.00145601
0.00145865
0.00145735
0.0014514
0.00144032
0.00142379
0.00140172
0.00137417
0.00134136
0.00130362
0.00126141
0.00121522
0.00116564
0.00111325
0.00105867
0.00100252
0.000945393
0.000887836
0.000830352
0.000769735
0.000706882
0.00064677
0.000590497
0.00053762
0.000487452
0.000439424
0.000393119
0.000348295
0.000304869
0.000262896
0.000222546
0.000184076
0.000147814
0.000114175
8.37676e-05
5.69344e-05
3.31611e-05
1.45491e-05
4.05756e-06
5.68401e-07
3.1274e-08
6.29124e-09
0.00146899
0.00147251
0.00147853
0.00148581
0.00149303
0.00149888
0.00150215
0.00150179
0.00149694
0.00148699
0.00147154
0.00145046
0.00142379
0.00139177
0.00135474
0.00131318
0.00126761
0.00121859
0.00116672
0.00111259
0.0010568
0.000999904
0.000942437
0.000884873
0.000827618
0.000765247
0.000703591
0.000645302
0.000590509
0.000538616
0.000489021
0.00044124
0.000394948
0.00034999
0.000306347
0.000264121
0.000223517
0.000184812
0.00014835
0.000114551
8.40218e-05
5.71002e-05
3.3268e-05
1.46069e-05
4.07725e-06
5.71489e-07
3.14465e-08
6.32116e-09
0.00152207
0.00152511
0.00153019
0.00153605
0.00154132
0.00154466
0.00154484
0.00154084
0.00153187
0.00151744
0.00149733
0.00147154
0.00144032
0.00140402
0.00136315
0.00131823
0.00126985
0.0012186
0.00116506
0.00110979
0.00105333
0.000996182
0.000938785
0.00088153
0.000822902
0.000760949
0.000701084
0.000644585
0.000591114
0.000540049
0.000490871
0.000443202
0.000396821
0.000351653
0.000307744
0.000265236
0.000224366
0.000185428
0.000148776
0.000114833
8.42015e-05
5.72103e-05
3.3334e-05
1.46425e-05
4.0895e-06
5.73428e-07
3.15562e-08
6.34134e-09
0.00157378
0.00157617
0.00157997
0.00158394
0.0015867
0.00158692
0.00158339
0.00157517
0.00156161
0.00154238
0.00151744
0.00148699
0.0014514
0.00141119
0.00136693
0.00131921
0.00126862
0.00121575
0.00116113
0.00110526
0.00104862
0.000991617
0.000934604
0.000877884
0.000817221
0.000756815
0.000699156
0.000644427
0.000592126
0.000541733
0.00049284
0.000445183
0.000398642
0.000353221
0.000309019
0.000266219
0.000225082
0.00018592
0.000149091
0.000115021
8.43055e-05
5.72624e-05
3.33552e-05
1.46531e-05
4.09318e-06
5.74026e-07
3.15922e-08
6.34937e-09
0.00162338
0.00162492
0.0016271
0.00162871
0.00162842
0.00162493
0.00161714
0.00160425
0.00158579
0.00156161
0.00153187
0.00149694
0.00145735
0.00141368
0.00136658
0.00131664
0.00126444
0.00121052
0.00115535
0.00109936
0.00104293
0.000986374
0.000929977
0.000871516
0.000811282
0.000753123
0.000697679
0.000644568
0.000593291
0.000543445
0.000494746
0.000447045
0.000400317
0.000354631
0.000310136
0.000267051
0.00022566
0.000186288
0.000149299
0.000115119
8.43353e-05
5.7256e-05
3.33276e-05
1.46357e-05
4.08717e-06
5.73101e-07
3.15434e-08
6.34276e-09
0.00167001
0.00167052
0.00167075
0.00166956
0.00166572
0.00165805
0.0016456
0.00162775
0.00160425
0.00157517
0.00154084
0.00150179
0.00145865
0.00141207
0.0013627
0.00131112
0.00125787
0.0012034
0.00114812
0.00109236
0.00103642
0.000980539
0.00092325
0.000863328
0.000805281
0.00074977
0.000696409
0.000644718
0.000594317
0.000544924
0.000496376
0.000448628
0.000401729
0.000355808
0.000311054
0.000267714
0.000226095
0.000186535
0.000149404
0.00011513
8.42933e-05
5.71909e-05
3.32475e-05
1.45876e-05
4.07032e-06
5.7046e-07
3.13983e-08
6.31877e-09
0.00171281
0.00171213
0.00171011
0.00170577
0.001698
0.00168582
0.00166847
0.0016456
0.00161714
0.00158339
0.00154484
0.00150215
0.00145601
0.00140709
0.00135601
0.00130331
0.00124947
0.00119485
0.00113978
0.00108451
0.00102925
0.000972067
0.000912366
0.000854751
0.000799667
0.000746588
0.000694995
0.000644508
0.000594852
0.000545859
0.000497471
0.000449724
0.000402724
0.000356642
0.000311697
0.000268164
0.000226366
0.000186654
0.000149407
0.000115055
8.41803e-05
5.70661e-05
3.31104e-05
1.45053e-05
4.04133e-06
5.65885e-07
3.11433e-08
6.27398e-09
0.00175094
0.00174895
0.00174448
0.00173675
0.00172485
0.00170803
0.00168582
0.00165805
0.00162493
0.00158692
0.00154466
0.00149888
0.0014503
0.00139957
0.00134729
0.00129391
0.00123983
0.00118535
0.0011307
0.00107604
0.00101804
0.000958278
0.000901136
0.00084672
0.00079428
0.000743198
0.000693051
0.00064355
0.000594526
0.000545915
0.000497736
0.000450079
0.00040309
0.000356964
0.000311942
0.000268312
0.000226414
0.000186608
0.000149286
0.000114886
8.39913e-05
5.6878e-05
3.29102e-05
1.43846e-05
3.9986e-06
5.59117e-07
3.07621e-08
6.20408e-09
0.0017837
0.00178034
0.00177335
0.00176217
0.00174616
0.00172485
0.001698
0.00166572
0.00162842
0.0015867
0.00154132
0.00149303
0.00144255
0.00139051
0.00133742
0.00128369
0.00122961
0.00117542
0.00112126
0.00106201
0.00100169
0.000944715
0.000890896
0.000839204
0.000788848
0.00073931
0.000690264
0.00064153
0.000593039
0.000544804
0.000496895
0.000449436
0.000402591
0.000356569
0.000311614
0.000268021
0.000226137
0.00018633
0.000149
0.000114597
8.37132e-05
5.66195e-05
3.26407e-05
1.42218e-05
3.94074e-06
5.49932e-07
3.02399e-08
6.10455e-09
0.00181054
0.00180585
0.00179643
0.00178198
0.00176217
0.00173675
0.00170577
0.00166956
0.00162871
0.00158394
0.00153605
0.00148581
0.00143392
0.00138096
0.00132737
0.00127349
0.00121954
0.00116568
0.00110574
0.0010442
0.000986627
0.000932945
0.000881815
0.000832166
0.000783313
0.000734847
0.000686563
0.000638385
0.000590323
0.000542441
0.000494842
0.000447667
0.000401087
0.000355307
0.00031057
0.000267163
0.00022543
0.000185739
0.000148496
0.000114159
8.33325e-05
5.6287e-05
3.23027e-05
1.40177e-05
3.86813e-06
5.38396e-07
2.95784e-08
5.97409e-09
0.00183108
0.00182522
0.00181368
0.00179643
0.00177335
0.00174448
0.00171011
0.00167075
0.0016271
0.00157997
0.00153019
0.00147853
0.00142565
0.00137207
0.00131819
0.00126427
0.00121048
0.00115188
0.00108839
0.00102895
0.000974462
0.000923348
0.00087413
0.000825849
0.000777938
0.00073012
0.000682298
0.00063448
0.000586727
0.00053914
0.000491843
0.000444983
0.00039873
0.000353281
0.000308867
0.000265762
0.000224298
0.000184834
0.000147773
0.000113577
8.28622e-05
5.58982e-05
3.19194e-05
1.37868e-05
3.78618e-06
5.25386e-07
2.8827e-08
5.82153e-09
0.00184507
0.00183833
0.00182522
0.00180585
0.00178034
0.00174895
0.00171213
0.00167052
0.00162492
0.00157617
0.00152511
0.00147251
0.00141899
0.00136504
0.001311
0.00125708
0.00120341
0.00113783
0.00107491
0.00101801
0.000965812
0.000916368
0.000868319
0.000820811
0.000773395
0.0007259
0.00067831
0.000630684
0.000583121
0.000535742
0.000488684
0.000442096
0.000396147
0.000351023
0.000306941
0.000264164
0.000223006
0.000183814
0.00014698
0.000112962
8.23856e-05
5.55199e-05
3.15567e-05
1.35693e-05
3.70916e-06
5.13181e-07
2.81185e-08
5.67434e-09
0.00185225
0.00184507
0.00183108
0.00181054
0.0017837
0.00175094
0.00171281
0.00167001
0.00162338
0.00157378
0.00152207
0.00146899
0.00141516
0.00136103
0.00130691
0.00125301
0.00119536
0.00112972
0.00106792
0.0010123
0.000961186
0.000912554
0.00086505
0.000817875
0.000770655
0.000723279
0.000675773
0.000628223
0.000580746
0.000533474
0.000486549
0.000440123
0.000394361
0.000349446
0.000305585
0.00026303
0.000222086
0.000183088
0.000146421
0.000112537
8.20639e-05
5.52708e-05
3.13225e-05
1.34291e-05
3.65966e-06
5.0535e-07
2.76624e-08
5.57808e-09
)
;

boundaryField
{
    inlet
    {
        type            cyclic;
    }
    outlet
    {
        type            cyclic;
    }
    walls
    {
        type            nutLowReWallFunction;
        value           uniform 0;
    }
    symPlanes
    {
        type            symmetry;
    }
}


// ************************************************************************* //
