/*--------------------------------*- C++ -*----------------------------------*\
| =========                 |                                                 |
| \\      /  F ield         | OpenFOAM: The Open Source CFD Toolbox           |
|  \\    /   O peration     | Version:  2312                                  |
|   \\  /    A nd           | Website:  www.openfoam.com                      |
|    \\/     M anipulation  |                                                 |
\*---------------------------------------------------------------------------*/
FoamFile
{
    version     2.0;
    format      ascii;
    arch        "LSB;label=32;scalar=64";
    class       volScalarField;
    location    "1919";
    object      omega;
}
// * * * * * * * * * * * * * * * * * * * * * * * * * * * * * * * * * * * * * //

dimensions      [0 0 -1 0 0 0 0];

internalField   nonuniform List<scalar> 
2304
(
2465.52
2465.52
2465.52
2465.52
2465.53
2465.53
2465.53
2465.53
2465.53
2465.53
2465.53
2465.53
2465.53
2465.53
2465.53
2465.53
2465.53
2465.53
2465.53
2465.52
2465.52
2465.52
2465.52
2465.52
2465.52
2465.52
2465.52
2465.52
2465.52
2465.52
2465.52
2465.52
2465.52
2465.52
2465.52
2465.52
2465.51
2465.51
2465.51
2465.51
2465.51
2465.5
2465.5
2465.5
2465.5
2465.5
2465.5
2465.5
416.042
416.044
416.049
416.06
416.075
416.092
416.107
416.118
416.125
416.128
416.128
416.126
416.121
416.116
416.109
416.102
416.095
416.088
416.08
416.072
416.062
416.048
416.03
416.004
415.967
415.916
415.879
415.835
415.778
415.706
415.617
415.512
415.392
415.257
415.111
414.96
414.814
414.685
414.58
414.503
414.447
414.401
414.405
414.575
416.07
429.612
570.424
2465.5
140.138
140.215
140.333
140.454
140.558
140.637
140.692
140.728
140.747
140.753
140.747
140.731
140.708
140.68
140.647
140.613
140.578
140.544
140.512
140.484
140.459
140.438
140.421
140.405
140.389
140.37
140.306
140.218
140.102
139.954
139.771
139.551
139.295
139.004
138.681
138.338
137.991
137.656
137.35
137.085
136.87
136.742
136.901
138.42
146.434
188.202
429.612
2465.5
69.8691
69.9662
70.1155
70.2721
70.4087
70.5153
70.5918
70.6419
70.6697
70.6788
70.6724
70.6534
70.6245
70.5882
70.5469
70.5029
70.4581
70.414
70.3718
70.3322
70.2949
70.2592
70.2229
70.1832
70.1355
70.0715
69.967
69.8293
69.6531
69.4334
69.1669
68.8528
68.4922
68.0882
67.6459
67.1783
66.7023
66.2361
65.799
65.4147
65.1355
65.1364
66.0658
70.249
86.0936
146.434
416.07
2465.5
44.2587
44.3448
44.4787
44.622
44.7504
44.8534
44.9293
44.9802
45.0096
45.021
45.0175
45.0021
44.9776
44.9465
44.9108
44.8725
44.833
44.7931
44.7533
44.7131
44.6712
44.6254
44.5723
44.5077
44.426
44.318
44.1716
43.9874
43.7624
43.4949
43.1856
42.8382
42.4579
42.0521
41.6292
41.2035
40.7914
40.4094
40.0766
39.8288
39.7699
40.2362
42.2939
49.1202
70.249
138.42
414.576
2465.5
31.9231
31.9817
32.0754
32.1803
32.2792
32.3625
32.4265
32.4711
32.4985
32.5113
32.5123
32.5042
32.4891
32.4691
32.4456
32.4198
32.3922
32.3626
32.3303
32.2936
32.2499
32.1959
32.1275
32.0397
31.9274
31.7831
31.602
31.3844
31.1314
30.8469
30.5375
30.2127
29.8841
29.5647
29.2687
29.0124
28.813
28.6887
28.6639
28.7924
29.2246
30.4024
33.6026
42.2939
66.0659
136.901
414.405
2465.5
24.6433
24.6738
24.7262
24.7909
24.8582
24.9196
24.9698
25.007
25.0316
25.0454
25.0505
25.049
25.0427
25.0328
25.0201
25.0049
24.9868
24.9647
24.9369
24.9008
24.8529
24.7894
24.7059
24.5979
24.4613
24.2921
24.0897
23.857
23.5996
23.3264
23.0493
22.7827
22.5425
22.3459
22.2107
22.1566
22.2046
22.3789
22.7158
23.2921
24.2998
26.2342
30.4024
40.2362
65.1364
136.742
414.401
2465.51
19.8028
19.81
19.8278
19.8579
19.8971
19.9384
19.9757
20.0054
20.0269
20.0409
20.0488
20.0521
20.052
20.049
20.0432
20.0342
20.0209
20.0015
19.9736
19.9339
19.8789
19.8047
19.7073
19.5834
19.4306
19.2482
19.0386
18.808
18.5656
18.3238
18.0978
17.9048
17.7628
17.6907
17.7081
17.8375
18.1049
18.5434
19.2043
20.1866
21.7117
24.2998
29.2246
39.7699
65.1355
136.87
414.448
2465.51
16.3439
16.3337
16.3252
16.3284
16.3448
16.3692
16.3951
16.4181
16.4362
16.4496
16.4589
16.4649
16.4681
16.4686
16.4659
16.4591
16.4463
16.4254
16.3937
16.3478
16.2842
16.1996
16.091
15.9565
15.7955
15.6102
15.4056
15.1901
14.9753
14.7754
14.6071
14.4884
14.4384
14.4763
14.6233
14.9035
15.3481
15.9996
16.9241
18.24
20.1866
23.2921
28.7924
39.8288
65.4148
137.085
414.504
2465.51
13.7603
13.7382
13.7112
13.6945
13.6934
13.704
13.7202
13.7369
13.7516
13.7635
13.7727
13.7795
13.7837
13.785
13.7823
13.7743
13.759
13.7339
13.6962
13.6429
13.5709
13.4776
13.3614
13.2217
13.0602
12.8807
12.6904
12.4989
12.3189
12.1651
12.0542
12.0042
12.0341
12.1639
12.4153
12.8147
13.3975
14.2146
15.3456
16.9241
19.2043
22.7158
28.6639
40.0766
65.799
137.35
414.581
2465.51
11.7727
11.7431
11.7037
11.673
11.6585
11.658
11.6658
11.6767
11.6877
11.6974
11.7053
11.7111
11.7144
11.7142
11.7093
11.698
11.6781
11.6473
11.6028
11.5421
11.463
11.3637
11.2439
11.1045
10.9489
10.7824
10.613
10.4513
10.3096
10.2026
10.1461
10.1573
10.255
10.4596
10.794
11.2868
11.9773
12.9232
14.2146
15.9996
18.5434
22.3789
28.6887
40.4094
66.2361
137.656
414.685
2465.51
10.2083
10.1742
10.1271
10.0868
10.0623
10.0528
10.0532
10.0585
10.0655
10.0722
10.0777
10.0813
10.0821
10.0789
10.0702
10.0542
10.0287
9.99153
9.94046
9.87347
9.78914
9.68694
9.56762
9.43362
9.2893
9.14112
8.99755
8.86894
8.76733
8.70631
8.70065
8.76637
8.9214
9.18662
9.58672
10.1529
10.9285
11.9773
13.3975
15.3481
18.1049
22.2046
28.813
40.7914
66.7023
137.991
414.814
2465.52
8.95286
8.91665
8.86518
8.81851
8.78656
8.76962
8.76347
8.76342
8.76602
8.76913
8.77138
8.77166
8.7688
8.76142
8.74789
8.72639
8.69497
8.6517
8.59486
8.5232
8.43618
8.33432
8.21951
8.09525
7.9667
7.84077
7.72607
7.63252
7.57147
7.5552
7.59718
7.71188
7.91594
8.23051
8.68298
9.30799
10.1529
11.2868
12.8147
14.9036
17.8375
22.1566
29.0124
41.2035
67.1783
138.338
414.96
2465.52
7.92829
7.89149
7.83801
7.78741
7.74996
7.72689
7.71481
7.70945
7.7074
7.70631
7.70452
7.70066
7.69333
7.68105
7.66218
7.635
7.59786
7.54923
7.48803
7.41376
7.32678
7.22857
7.12193
7.0111
6.90172
6.80079
6.71683
6.65922
6.63838
6.66503
6.7506
6.90874
7.15593
7.51317
8.00909
8.68298
9.58672
10.794
12.4153
14.6233
17.7081
22.2107
29.2687
41.6292
67.646
138.681
415.111
2465.52
7.07993
7.04352
6.9896
6.93673
6.89521
6.86698
6.84946
6.83886
6.8319
6.82613
6.81971
6.81108
6.79875
6.78118
6.75683
6.72422
6.68202
6.62925
6.56546
6.49091
6.40681
6.31541
6.22013
6.12571
6.038
5.96399
5.91172
5.88994
5.90687
5.9722
6.09683
6.29393
6.58012
6.97699
7.51317
8.23051
9.18662
10.4596
12.1639
14.4764
17.6907
22.3459
29.5647
42.0521
68.0882
139.004
415.257
2465.52
6.36834
6.33291
6.27951
6.2255
6.18092
6.14829
6.12571
6.10992
6.09784
6.08704
6.07557
6.0618
6.04419
6.02128
5.99171
5.95428
5.90811
5.85277
5.78845
5.71612
5.63765
5.55591
5.47468
5.39902
5.33478
5.28891
5.26797
5.27913
5.33024
5.43043
5.59052
5.82345
6.14592
6.58012
7.15593
7.91594
8.9214
10.255
12.0341
14.4384
17.7628
22.5425
29.8842
42.4579
68.4922
139.295
415.392
2465.52
5.76381
5.72973
5.67752
5.62317
5.57632
5.53986
5.51256
5.49165
5.47434
5.45828
5.44153
5.42247
5.39961
5.37165
5.33748
5.29626
5.24759
5.19158
5.12901
5.06139
4.99114
4.92152
4.85665
4.80155
4.76196
4.74311
4.75106
4.79233
4.87486
5.00734
5.20021
5.46649
5.82345
6.29393
6.90874
7.71188
8.76637
10.1573
12.0042
14.4884
17.9048
22.7827
30.2128
42.8382
68.8528
139.551
415.512
2465.52
5.24425
5.21174
5.16111
5.10696
5.05841
5.01861
4.98688
4.96098
4.93842
4.91703
4.89498
4.87073
4.84296
4.81058
4.77279
4.72917
4.67975
4.62513
4.56662
4.50612
4.44643
4.39101
4.34433
4.31053
4.29428
4.30053
4.33524
4.40482
4.5165
4.6788
4.90221
5.20021
5.59052
6.09683
6.7506
7.59718
8.70065
10.1461
12.0542
14.6071
18.0978
23.0493
30.5375
43.1857
69.167
139.771
415.617
2465.52
4.79318
4.7623
4.71346
4.65984
4.61
4.56724
4.53137
4.50064
4.47294
4.44635
4.41923
4.3902
4.35819
4.32237
4.28227
4.23786
4.18961
4.13848
4.0862
4.03498
3.98783
3.94824
3.91965
3.90606
3.91174
3.94187
4.00186
4.09768
4.23636
4.42646
4.6788
5.00734
5.43043
5.9722
6.66503
7.5552
8.70631
10.2026
12.1651
14.7754
18.3238
23.3264
30.8469
43.4949
69.4334
139.955
415.706
2465.52
4.39789
4.36862
4.3216
4.26869
4.21784
4.17243
4.13272
4.09745
4.0649
4.03347
4.00179
3.96873
3.93345
3.89547
3.85461
3.81118
3.76603
3.72042
3.67621
3.63605
3.60235
3.57827
3.56703
3.57277
3.59969
3.65239
3.7359
3.85607
4.01996
4.23636
4.5165
4.87486
5.33023
5.90687
6.63838
7.57147
8.76733
10.3096
12.3189
14.9753
18.5656
23.5996
31.1314
43.7624
69.6532
140.102
415.779
2465.53
4.0484
4.02066
3.97541
3.92328
3.87162
3.82387
3.78068
3.74127
3.70437
3.66874
3.63332
3.59727
3.56002
3.52136
3.48144
3.44077
3.40042
3.36201
3.32719
3.29826
3.27779
3.26877
3.27471
3.29926
3.34626
3.42001
3.52542
3.66835
3.85607
4.09768
4.40481
4.79233
5.27913
5.88994
6.65922
7.63252
8.86894
10.4513
12.4989
15.1901
18.808
23.857
31.3844
43.9874
69.8294
140.218
415.836
2465.53
3.7368
3.71046
3.66687
3.61553
3.56324
3.51347
3.46726
3.42429
3.38378
3.34489
3.30686
3.26914
3.2314
3.1936
3.15619
3.11981
3.08549
3.05477
3.0295
3.01183
3.00464
3.0108
3.03343
3.07584
3.14166
3.23505
3.36096
3.52542
3.7359
4.00186
4.33524
4.75106
5.26797
5.91172
6.71683
7.72607
8.99755
10.613
12.6904
15.4056
19.0386
24.0897
31.602
44.1716
69.967
140.306
415.879
2465.53
3.45673
3.43165
3.38958
3.33902
3.28628
3.23489
3.18624
3.14051
3.0974
3.05644
3.01716
2.97919
2.9424
2.9068
2.87285
2.84138
2.81354
2.79083
2.77541
2.76954
2.77578
2.79675
2.83529
2.89449
2.97793
3.08976
3.23505
3.42001
3.65239
3.94187
4.30053
4.74311
5.2889
5.96399
6.80079
7.84077
9.14111
10.7824
12.8807
15.6102
19.2482
24.2921
31.7831
44.318
70.0715
140.37
415.916
2465.53
3.20298
3.17902
3.13834
3.08858
3.03565
2.98313
2.93279
2.88532
2.84084
2.79916
2.75997
2.72288
2.68786
2.65514
2.62525
2.59919
2.57836
2.56445
2.55947
2.56555
2.58495
2.62009
2.67365
2.74865
2.84866
2.97793
3.14166
3.34626
3.59969
3.91173
4.29428
4.76196
5.33478
6.038
6.90172
7.9667
9.2893
10.9489
13.0602
15.7955
19.4306
24.4613
31.9274
44.426
70.1355
140.389
415.967
2465.53
2.97129
2.94834
2.90894
2.86006
2.80727
2.75426
2.70318
2.65516
2.61061
2.56932
2.53099
2.49546
2.46283
2.4336
2.40853
2.38876
2.37576
2.37118
2.37684
2.39466
2.42673
2.47533
2.54307
2.63297
2.74865
2.89449
3.07584
3.29926
3.57277
3.90606
4.31053
4.80155
5.39901
6.12571
7.0111
8.09525
9.43362
11.1045
13.2217
15.9565
19.5834
24.5979
32.0397
44.5077
70.1832
140.405
416.004
2465.53
2.75812
2.73609
2.69796
2.65013
2.59795
2.54527
2.49454
2.44718
2.40344
2.36317
2.32631
2.29301
2.26362
2.23877
2.21939
2.20668
2.20204
2.207
2.22319
2.25238
2.29654
2.3579
2.43905
2.54307
2.67365
2.83529
3.03343
3.27471
3.56703
3.91965
4.34433
4.85664
5.47468
6.22013
7.12193
8.21951
9.56762
11.2439
13.3614
16.091
19.7073
24.7059
32.1275
44.5723
70.223
140.421
416.03
2465.53
2.56054
2.53941
2.50262
2.45617
2.40526
2.35384
2.30459
2.25866
2.21626
2.17765
2.14308
2.11289
2.0876
2.06798
2.05503
2.0499
2.05387
2.06832
2.09477
2.13487
2.19055
2.26402
2.3579
2.47533
2.62009
2.79675
3.0108
3.26877
3.57827
3.94824
4.39101
4.92152
5.55591
6.31541
7.22856
8.33432
9.68694
11.3637
13.4776
16.1996
19.8047
24.7894
32.1959
44.6254
70.2592
140.438
416.049
2465.53
2.37622
2.35606
2.32083
2.27623
2.22738
2.17825
2.13119
2.08714
2.04677
2.01063
1.97919
1.95295
1.93258
1.91892
1.91291
1.91564
1.92825
1.95201
1.98836
2.03891
2.10556
2.19055
2.29654
2.42673
2.58495
2.77578
3.00464
3.27779
3.60235
3.98783
4.44643
4.99114
5.63765
6.40681
7.32677
8.43618
9.78914
11.463
13.5709
16.2842
19.8789
24.8529
32.2499
44.6712
70.295
140.459
416.062
2465.53
2.20343
2.18438
2.15109
2.10901
2.06308
2.01689
1.97236
1.9308
1.89324
1.8604
1.83291
1.81142
1.79667
1.78948
1.79073
1.80139
1.82253
1.85536
1.90124
1.96179
2.03891
2.13487
2.25238
2.39466
2.56555
2.76954
3.01183
3.29826
3.63605
4.03498
4.50611
5.06139
5.71612
6.49091
7.41376
8.5232
9.87347
11.5421
13.6429
16.3478
19.9339
24.9008
32.2936
44.7131
70.3322
140.484
416.072
2465.53
2.04112
2.02341
1.99257
1.95369
1.91122
1.86817
1.82664
1.7883
1.75431
1.72556
1.70279
1.68673
1.67813
1.67774
1.68639
1.70496
1.73446
1.77606
1.83111
1.90124
1.98836
2.09477
2.22319
2.37684
2.55947
2.77541
3.0295
3.32719
3.67621
4.0862
4.56662
5.12901
5.78845
6.56546
7.48803
8.59486
9.94046
11.6028
13.6962
16.3937
19.9736
24.937
32.3303
44.7533
70.3719
140.512
416.081
2465.53
1.8889
1.87279
1.84485
1.80947
1.7705
1.73088
1.69298
1.65856
1.62889
1.60495
1.58756
1.57747
1.57537
1.58198
1.59805
1.62443
1.66209
1.71218
1.77606
1.85536
1.95201
2.06833
2.207
2.37118
2.56445
2.79083
3.05477
3.36202
3.72042
4.13848
4.62513
5.19158
5.85277
6.62925
7.54923
8.6517
9.99154
11.6473
13.7339
16.4254
20.0015
24.9648
32.3626
44.7931
70.414
140.544
416.088
2465.53
1.74676
1.73237
1.70726
1.67526
1.63991
1.60423
1.57058
1.54075
1.51607
1.49757
1.48608
1.48233
1.48696
1.50066
1.52412
1.55818
1.60379
1.66209
1.73446
1.82254
1.92825
2.05387
2.20204
2.37576
2.57836
2.81354
3.08549
3.40043
3.76603
4.18962
4.67975
5.24759
5.90811
6.68202
7.59786
8.69497
10.0287
11.6781
13.759
16.4463
20.0209
24.9868
32.3922
44.833
70.4581
140.578
416.095
2465.53
1.61405
1.60129
1.57882
1.55024
1.51889
1.48765
1.45883
1.4342
1.41508
1.40252
1.39731
1.40015
1.41165
1.43245
1.46324
1.50483
1.55818
1.62443
1.70496
1.80139
1.91564
2.0499
2.20668
2.38876
2.59919
2.84138
3.11981
3.44078
3.81119
4.23786
4.72917
5.29626
5.95428
6.72422
7.63501
8.72639
10.0542
11.698
13.7743
16.4591
20.0342
25.0049
32.4198
44.8725
70.5029
140.613
416.102
2465.53
1.48983
1.4786
1.45891
1.43403
1.40707
1.38074
1.35726
1.33832
1.32523
1.31897
1.32032
1.32991
1.34834
1.37623
1.41427
1.46324
1.52412
1.59805
1.68639
1.79073
1.91291
2.05503
2.21939
2.40853
2.62525
2.87286
3.15619
3.48144
3.85462
4.28227
4.77279
5.33748
5.99171
6.75684
7.66218
8.74789
10.0702
11.7093
13.7823
16.466
20.0432
25.0201
32.4456
44.9108
70.5469
140.647
416.109
2465.53
1.37367
1.36405
1.34732
1.32641
1.30419
1.28319
1.26546
1.25262
1.24589
1.24619
1.25426
1.2707
1.2961
1.33105
1.37623
1.43245
1.50066
1.58198
1.67774
1.78948
1.91892
2.06798
2.23877
2.4336
2.65515
2.9068
3.19361
3.52136
3.89547
4.32238
4.81059
5.37166
6.02129
6.78119
7.68105
8.76142
10.0789
11.7142
13.785
16.4686
20.049
25.0328
32.4691
44.9465
70.5882
140.68
416.116
2465.53
1.2655
1.25759
1.24398
1.22729
1.21012
1.19476
1.18311
1.17664
1.1765
1.18353
1.19843
1.22178
1.25414
1.2961
1.34834
1.41165
1.48696
1.57537
1.67813
1.79667
1.93259
2.0876
2.26362
2.46283
2.68787
2.9424
3.23141
3.56002
3.93345
4.35819
4.84296
5.39962
6.0442
6.79876
7.69334
8.76881
10.0821
11.7144
13.7837
16.4681
20.052
25.0427
32.4891
44.9776
70.6245
140.708
416.122
2465.53
1.1654
1.15929
1.14894
1.13666
1.12475
1.11526
1.10988
1.10996
1.11654
1.1304
1.15219
1.18247
1.22178
1.2707
1.32991
1.40015
1.48233
1.57747
1.68674
1.81143
1.95296
2.11289
2.29301
2.49546
2.72289
2.97919
3.26914
3.59728
3.96873
4.39021
4.87073
5.42247
6.06181
6.81109
7.70066
8.77167
10.0814
11.7111
13.7795
16.4649
20.0522
25.049
32.5042
45.0021
70.6534
140.731
416.126
2465.53
1.07355
1.06928
1.06228
1.05452
1.04799
1.04447
1.04548
1.05219
1.06555
1.08628
1.11498
1.15219
1.19843
1.25426
1.32032
1.39732
1.48609
1.58756
1.70279
1.83291
1.97919
2.14308
2.32631
2.531
2.75997
3.01716
3.30686
3.63333
4.00179
4.41923
4.89498
5.44154
6.07558
6.81972
7.70453
8.77139
10.0778
11.7053
13.7727
16.4589
20.0488
25.0505
32.5123
45.0175
70.6724
140.747
416.129
2465.53
0.990123
0.987703
0.98408
0.980862
0.979723
0.982197
0.989583
1.00293
1.02307
1.05067
1.08628
1.1304
1.18353
1.24619
1.31897
1.40252
1.49757
1.60495
1.72556
1.8604
2.01064
2.17766
2.36318
2.56933
2.79917
3.05645
3.3449
3.66875
4.03348
4.44636
4.91703
5.45829
6.08705
6.82614
7.70632
8.76914
10.0722
11.6974
13.7635
16.4496
20.0409
25.0454
32.5113
45.021
70.6788
140.753
416.129
2465.53
0.915275
0.914678
0.914371
0.915621
0.919796
0.928175
0.941868
0.961784
0.988655
1.02307
1.06555
1.11654
1.1765
1.24589
1.32523
1.41508
1.51607
1.62889
1.75431
1.89324
2.04677
2.21627
2.40344
2.61062
2.84085
3.09741
3.38379
3.70437
4.06491
4.47295
4.93843
5.47435
6.09785
6.8319
7.70741
8.76603
10.0655
11.6877
13.7516
16.4362
20.0269
25.0316
32.4985
45.0096
70.6697
140.747
416.125
2465.53
0.849082
0.850237
0.85312
0.858679
0.867994
0.882111
0.901954
0.928301
0.961784
1.00293
1.05219
1.10996
1.17664
1.25262
1.33832
1.4342
1.54075
1.65856
1.7883
1.9308
2.08714
2.25866
2.44718
2.65516
2.88532
3.14052
3.4243
3.74127
4.09745
4.50065
4.96099
5.49166
6.10992
6.83886
7.70946
8.76343
10.0585
11.6767
13.7369
16.4181
20.0055
25.007
32.4711
44.9803
70.6419
140.728
416.118
2465.53
0.791523
0.794323
0.800208
0.809839
0.824039
0.843637
0.869393
0.901954
0.941868
0.989582
1.04548
1.10988
1.18311
1.26546
1.35726
1.45883
1.57058
1.69298
1.82664
1.97236
2.1312
2.30459
2.49454
2.70319
2.9328
3.18624
3.46726
3.78069
4.13273
4.53138
4.98689
5.51256
6.12571
6.84946
7.71482
8.76348
10.0532
11.6658
13.7202
16.3951
19.9757
24.9698
32.4265
44.9293
70.5918
140.692
416.107
2465.53
0.742481
0.746786
0.755431
0.768827
0.78757
0.812304
0.843637
0.88211
0.928175
0.982196
1.04447
1.11525
1.19476
1.28319
1.38074
1.48765
1.60423
1.73087
1.86817
2.01689
2.17825
2.35384
2.54527
2.75427
2.98313
3.23489
3.51348
3.82387
4.17244
4.56724
5.01862
5.53987
6.14829
6.86699
7.7269
8.76963
10.0528
11.658
13.704
16.3693
19.9384
24.9196
32.3625
44.8534
70.5153
140.637
416.092
2465.53
0.701764
0.707409
0.71852
0.735299
0.758154
0.78757
0.824038
0.867994
0.919795
0.979722
1.04799
1.12475
1.21012
1.30419
1.40707
1.51889
1.63991
1.7705
1.91122
2.06308
2.22738
2.40526
2.59795
2.80727
3.03565
3.28629
3.56324
3.87162
4.21784
4.61
5.05842
5.57632
6.18093
6.89521
7.74997
8.78657
10.0623
11.6585
13.6934
16.3448
19.8971
24.8582
32.2792
44.7504
70.4087
140.558
416.076
2465.53
0.669156
0.675946
0.689173
0.708872
0.735298
0.768826
0.809839
0.858678
0.91562
0.980861
1.05452
1.13666
1.22729
1.32641
1.43403
1.55024
1.67526
1.80946
1.95368
2.10901
2.27623
2.45616
2.65012
2.86006
3.08858
3.33902
3.61553
3.92328
4.26869
4.65984
5.10696
5.62317
6.2255
6.93674
7.78742
8.81852
10.0868
11.673
13.6946
16.3284
19.8579
24.7909
32.1803
44.622
70.2722
140.454
416.06
2465.53
0.644482
0.65219
0.667118
0.689173
0.718519
0.75543
0.800207
0.853119
0.914369
0.984078
1.06228
1.14894
1.24398
1.34732
1.45891
1.57882
1.70726
1.84484
1.99256
2.15109
2.32082
2.50262
2.69795
2.90894
3.13834
3.38957
3.66687
3.97541
4.3216
4.71346
5.16111
5.67752
6.27951
6.9896
7.83801
8.86518
10.1271
11.7037
13.7112
16.3252
19.8278
24.7263
32.0755
44.4787
70.1156
140.333
416.049
2465.53
0.627704
0.636059
0.65219
0.675946
0.707408
0.746785
0.794321
0.850236
0.914677
0.9877
1.06927
1.15928
1.25759
1.36405
1.4786
1.60128
1.73237
1.87278
2.02341
2.18438
2.35605
2.53941
2.73608
2.94833
3.17902
3.43164
3.71045
4.02065
4.36861
4.7623
5.21173
5.72973
6.3329
7.04351
7.89148
8.91664
10.1742
11.7431
13.7382
16.3337
19.81
24.6738
31.9817
44.3449
69.9663
140.215
416.044
2465.52
0.619026
0.627704
0.644482
0.669155
0.701763
0.74248
0.791522
0.84908
0.915273
0.99012
1.07355
1.1654
1.26549
1.37366
1.48983
1.61405
1.74675
1.8889
2.04111
2.20342
2.37621
2.56053
2.75811
2.97129
3.20297
3.45672
3.7368
4.04839
4.39788
4.79317
5.24423
5.7638
6.36833
7.07991
7.92828
8.95285
10.2083
11.7727
13.7603
16.3439
19.8028
24.6433
31.9232
44.2588
69.8691
140.138
416.043
2465.52
)
;

boundaryField
{
    inlet
    {
        type            cyclic;
    }
    outlet
    {
        type            cyclic;
    }
    walls
    {
        type            omegaWallFunction;
        blending        binomial;
        n               2;
        value           nonuniform List<scalar> 
96
(
2465.5
2465.5
2465.5
2465.5
2465.5
2465.5
2465.51
2465.51
2465.51
2465.51
2465.51
2465.52
2465.52
2465.52
2465.52
2465.52
2465.52
2465.52
2465.52
2465.53
2465.53
2465.53
2465.53
2465.53
2465.53
2465.53
2465.53
2465.53
2465.53
2465.53
2465.53
2465.53
2465.53
2465.53
2465.53
2465.53
2465.53
2465.53
2465.53
2465.53
2465.53
2465.53
2465.53
2465.53
2465.53
2465.53
2465.52
2465.52
2465.52
2465.52
2465.52
2465.52
2465.53
2465.53
2465.53
2465.53
2465.53
2465.53
2465.53
2465.53
2465.53
2465.53
2465.53
2465.53
2465.53
2465.53
2465.53
2465.52
2465.52
2465.52
2465.52
2465.52
2465.52
2465.52
2465.52
2465.52
2465.52
2465.52
2465.52
2465.52
2465.52
2465.52
2465.52
2465.52
2465.51
2465.51
2465.51
2465.51
2465.51
2465.5
2465.5
2465.5
2465.5
2465.5
2465.5
2465.5
)
;
    }
    symPlanes
    {
        type            symmetry;
    }
}


// ************************************************************************* //
