/*--------------------------------*- C++ -*----------------------------------*\
| =========                 |                                                 |
| \\      /  F ield         | OpenFOAM: The Open Source CFD Toolbox           |
|  \\    /   O peration     | Version:  2312                                  |
|   \\  /    A nd           | Website:  www.openfoam.com                      |
|    \\/     M anipulation  |                                                 |
\*---------------------------------------------------------------------------*/
FoamFile
{
    version     2.0;
    format      ascii;
    arch        "LSB;label=32;scalar=64";
    class       volScalarField;
    location    "1919";
    object      p;
}
// * * * * * * * * * * * * * * * * * * * * * * * * * * * * * * * * * * * * * //

dimensions      [0 2 -2 0 0 0 0];

internalField   nonuniform List<scalar> 
2304
(
-2.16356e-10
7.31913e-06
1.92783e-05
3.33576e-05
4.77723e-05
6.17539e-05
7.50669e-05
8.7766e-05
9.99758e-05
0.000111838
0.000123487
0.000135049
0.000146646
0.000158391
0.00017039
0.000182735
0.000195505
0.00020876
0.000222542
0.000236872
0.00025175
0.000267147
0.000283011
0.000299257
0.000315765
0.000332375
0.000348891
0.000365089
0.000380705
0.000395447
0.000409011
0.000421106
0.000431478
0.000439936
0.000446369
0.000450684
0.000452893
0.000453173
0.00045189
0.000449596
0.000446962
0.000444669
0.000443121
0.000442321
0.000442025
0.000441969
0.000441978
0.000441985
-5.08891e-07
6.72616e-06
1.85728e-05
3.25436e-05
4.68752e-05
6.0801e-05
7.40799e-05
8.67598e-05
9.8961e-05
0.000110823
0.000122478
0.000134053
0.000145668
0.000157435
0.000169459
0.000181832
0.00019463
0.000207911
0.000221717
0.000236065
0.000250951
0.000266346
0.000282192
0.0002984
0.000314847
0.000331371
0.000347772
0.000363827
0.000379276
0.000393833
0.000407207
0.000419117
0.000429326
0.000437652
0.000444006
0.000448316
0.000450622
0.000451117
0.000450171
0.000448298
0.000446099
0.000444182
0.000442907
0.000442263
0.000442032
0.000441988
0.000441986
0.000441978
4.92976e-07
7.72724e-06
1.95669e-05
3.35394e-05
4.78809e-05
6.18207e-05
7.51123e-05
8.78005e-05
0.000100004
0.000111861
0.000123507
0.000135066
0.000146661
0.000158406
0.000170405
0.00018275
0.000195518
0.000208767
0.000222537
0.000236845
0.000251684
0.000267023
0.000282801
0.000298924
0.000315265
0.000331659
0.000347903
0.000363772
0.000379008
0.000393328
0.000406446
0.000418094
0.000428045
0.000436128
0.000442285
0.000446466
0.000448729
0.000449286
0.000448508
0.000446886
0.000444961
0.000443328
0.000442345
0.000441958
0.000441906
0.00044196
0.000441988
0.000441969
1.41256e-05
2.17056e-05
3.40462e-05
4.85588e-05
6.33815e-05
7.77032e-05
9.12717e-05
0.000104141
0.000116439
0.000128318
0.000139919
0.000151378
0.000162826
0.000174386
0.000186172
0.000198283
0.000210804
0.0002238
0.000237315
0.000251371
0.000265964
0.00028106
0.000296597
0.000312477
0.000328565
0.000344687
0.00036063
0.000376146
0.000390954
0.00040475
0.000417225
0.000428092
0.000437113
0.00044412
0.000449122
0.000452073
0.000453053
0.000452324
0.000450321
0.000447608
0.000444777
0.000442597
0.000441533
0.000441383
0.000441635
0.000441906
0.000442032
0.000442025
5.93059e-05
6.76792e-05
8.1251e-05
9.70899e-05
0.000113101
0.000128376
0.00014265
0.000155997
0.000168575
0.000180559
0.000192115
0.000203399
0.000214565
0.000225755
0.000237105
0.000248732
0.000260737
0.000273202
0.000286185
0.000299715
0.000313796
0.000328397
0.00034345
0.00035885
0.000374445
0.000390048
0.00040542
0.000420254
0.000434205
0.000446903
0.000457969
0.000467045
0.000473836
0.000478131
0.000480016
0.000479443
0.000476485
0.000471439
0.000464836
0.000457419
0.000450061
0.000444353
0.00044144
0.000440886
0.000441383
0.000441958
0.000442263
0.000442321
0.000138089
0.000147003
0.000161494
0.000178333
0.000195257
0.000211284
0.000226133
0.000239883
0.000252705
0.000264791
0.000276318
0.000287458
0.000298378
0.000309233
0.000320171
0.000331323
0.000342804
0.000354706
0.000367098
0.00038002
0.000393484
0.000407465
0.000421898
0.000436676
0.000451642
0.000466603
0.000481298
0.000495381
0.000508463
0.000520115
0.000529883
0.000537307
0.000541953
0.00054337
0.000541262
0.000535792
0.000527129
0.000515493
0.000501325
0.0004853
0.000468188
0.000453366
0.00044446
0.00044144
0.000441533
0.000442345
0.000442907
0.000443121
0.000217948
0.000226519
0.000240532
0.000256888
0.000273415
0.000289157
0.000303813
0.000317437
0.000330173
0.000342189
0.000353648
0.000364708
0.000375523
0.000386237
0.000396988
0.000407899
0.000419077
0.000430612
0.000442571
0.000454997
0.000467907
0.000481283
0.000495076
0.00050919
0.000523486
0.000537771
0.000551789
0.000565232
0.000577729
0.000588845
0.00059809
0.000604912
0.00060871
0.000608783
0.000604203
0.000595265
0.000582518
0.000566474
0.000547729
0.000526563
0.000500953
0.000473432
0.000453366
0.000444353
0.000442597
0.000443328
0.000444182
0.000444669
0.000269514
0.000277526
0.000290642
0.000306096
0.000321875
0.000337058
0.000351317
0.000364662
0.000377202
0.00038908
0.00040044
0.000411422
0.000422163
0.000432794
0.000443437
0.000454202
0.000465184
0.000476463
0.000488094
0.000500116
0.000512538
0.00052534
0.000538473
0.000551845
0.000565319
0.0005787
0.000591748
0.000604178
0.000615633
0.000625664
0.000633736
0.000639196
0.000641317
0.000639496
0.000633231
0.000622749
0.00060894
0.00059287
0.000575571
0.000557902
0.00053502
0.000500953
0.000468188
0.000450061
0.000444777
0.000444961
0.000446099
0.000446962
0.000302096
0.000309738
0.000322297
0.000337236
0.000352631
0.000367554
0.000381637
0.000394854
0.00040729
0.000419076
0.000430347
0.000441238
0.000451881
0.000462399
0.000472908
0.00048351
0.000494291
0.000505322
0.000516647
0.000528292
0.000540254
0.0005525
0.000564964
0.000577543
0.000590087
0.000602408
0.000614255
0.000625325
0.000635219
0.000643406
0.000649214
0.00065184
0.000650523
0.000645024
0.000635995
0.000624349
0.000611333
0.000597925
0.000584721
0.000572671
0.000557902
0.000526563
0.0004853
0.000457419
0.000447608
0.000446886
0.000448298
0.000449596
0.000330718
0.000337889
0.000349793
0.000364113
0.000379029
0.000393615
0.00040746
0.000420498
0.000432789
0.000444449
0.000455605
0.000466383
0.00047691
0.0004873
0.000497661
0.000508088
0.000518655
0.000529424
0.000540428
0.000551681
0.000563169
0.000574844
0.000586634
0.000598421
0.000610058
0.000621353
0.000632023
0.000641712
0.000649908
0.000655881
0.00065872
0.000657517
0.000651907
0.000642537
0.00063109
0.000619421
0.000608956
0.000599893
0.000591735
0.000584721
0.000575571
0.000547729
0.000501325
0.000464836
0.000450321
0.000448508
0.000450171
0.00045189
0.000355254
0.000361858
0.000372927
0.000386431
0.000400689
0.000414787
0.000428272
0.000441032
0.000453096
0.000464563
0.000475548
0.000486168
0.000496538
0.000506765
0.000516946
0.000527165
0.000537487
0.000547964
0.000558618
0.000569453
0.000580445
0.000591537
0.000602656
0.000613684
0.000624456
0.000634748
0.000644183
0.000652283
0.000658316
0.000661122
0.000659711
0.000653612
0.000643567
0.000631583
0.000620169
0.000611138
0.000605402
0.00060226
0.000599893
0.000597925
0.00059287
0.000566474
0.000515493
0.000471439
0.000452324
0.000449286
0.000451118
0.000453173
0.000374794
0.000380798
0.000390957
0.00040356
0.000417081
0.000430623
0.000443687
0.000456114
0.000467902
0.000479128
0.000489896
0.000500313
0.000510489
0.000520516
0.000530486
0.000540472
0.000550529
0.000560704
0.000571004
0.000581431
0.000591955
0.000602515
0.00061305
0.000623408
0.000633364
0.000642613
0.000650646
0.000656684
0.000659609
0.000657643
0.000650407
0.000639378
0.000626743
0.000614749
0.00060597
0.000601826
0.0006021
0.000605402
0.000608956
0.000611333
0.00060894
0.000582518
0.000527129
0.000476485
0.000453053
0.000448729
0.000450622
0.000452893
0.000390535
0.000395911
0.000405119
0.000416765
0.00042949
0.000442421
0.000455017
0.000467069
0.000478538
0.000489482
0.000499995
0.000510175
0.000520123
0.000529925
0.000539664
0.000549407
0.000559199
0.000569084
0.000579059
0.000589132
0.000599279
0.000609434
0.000619513
0.000629269
0.000638402
0.000646556
0.000652731
0.000655463
0.000652783
0.000643858
0.000629725
0.000615234
0.000604583
0.000597696
0.000593792
0.000595209
0.000601826
0.000611138
0.000619421
0.000624349
0.000622749
0.000595265
0.000535792
0.000479443
0.000452073
0.000446466
0.000448316
0.000450684
0.000403375
0.000408102
0.000416315
0.000426939
0.000438794
0.000451046
0.000463116
0.000474742
0.000485849
0.000496472
0.000506695
0.000516606
0.000526303
0.000535862
0.000545364
0.000554869
0.000564414
0.00057405
0.000583775
0.000593618
0.000603543
0.00061342
0.000623097
0.000632307
0.000640583
0.000647306
0.000649275
0.000644648
0.000630958
0.000612555
0.000594106
0.000580244
0.00057561
0.000580022
0.000586221
0.000593792
0.000605971
0.000620169
0.00063109
0.000635995
0.000633231
0.000604203
0.000541262
0.000480016
0.000449122
0.000442285
0.000444006
0.000446369
0.000413741
0.000417808
0.000424991
0.00043453
0.000445439
0.000456938
0.000468421
0.000479572
0.000490277
0.000500548
0.000510455
0.000520079
0.000529516
0.000538834
0.000548114
0.000557413
0.000566771
0.00057627
0.000585897
0.000595684
0.000605494
0.00061514
0.000624597
0.000633376
0.000639892
0.000641594
0.000632825
0.000613569
0.000588178
0.00056388
0.00054756
0.000540555
0.000543685
0.000559072
0.000580022
0.000597696
0.000614749
0.000631584
0.000642537
0.000645024
0.000639496
0.000608784
0.00054337
0.000478131
0.00044412
0.000436128
0.000437652
0.000439936
0.00042201
0.000425415
0.000431545
0.000439946
0.000449836
0.000460507
0.000471338
0.000481968
0.000492242
0.000502141
0.000511725
0.000521065
0.000530258
0.000539366
0.00054848
0.000557669
0.000566985
0.000576536
0.000586224
0.000596019
0.000605833
0.000615482
0.000625159
0.000631648
0.000630979
0.000617176
0.000592011
0.000559851
0.000532365
0.000513665
0.00050566
0.000508081
0.000520177
0.000543685
0.00057561
0.000604583
0.000626743
0.000643568
0.000651907
0.000650523
0.000641317
0.00060871
0.000541953
0.000473836
0.000437113
0.000428045
0.000429326
0.000431478
0.000428491
0.00043124
0.000436312
0.000443536
0.000452337
0.000462104
0.00047222
0.000482287
0.00049211
0.000501637
0.000510915
0.000520004
0.000529011
0.000537995
0.00054708
0.000556342
0.000565797
0.000575508
0.000585321
0.000595396
0.00060589
0.000615518
0.000622209
0.000617781
0.000598607
0.000565411
0.000530192
0.000500852
0.000482142
0.000474426
0.000476256
0.000487295
0.000508081
0.000540555
0.000580244
0.000615234
0.000639378
0.000653612
0.000657517
0.00065184
0.000639197
0.000604912
0.000537307
0.000467045
0.000428092
0.000418095
0.000419117
0.000421106
0.000433395
0.000435505
0.000439529
0.000445551
0.000453208
0.000461999
0.000471342
0.000480814
0.000490183
0.000499364
0.000508392
0.00051732
0.000526269
0.000535295
0.00054453
0.000554007
0.000563676
0.000573715
0.000584144
0.00059562
0.000606028
0.00061067
0.000601216
0.000575791
0.000537592
0.000499942
0.000470801
0.00045362
0.000446263
0.000447714
0.000457507
0.000476256
0.00050566
0.00054756
0.000594106
0.000629725
0.000650408
0.000659711
0.00065872
0.000649214
0.000633736
0.00059809
0.000529883
0.000457969
0.000417225
0.000406446
0.000407207
0.000409011
0.000436879
0.000438376
0.000441375
0.00044619
0.000452662
0.000460424
0.000468949
0.000477812
0.000486756
0.000495669
0.000504567
0.000513483
0.00052254
0.000531758
0.000541276
0.000551091
0.000561357
0.000572978
0.000584648
0.000595379
0.000596396
0.000582199
0.000548788
0.000508174
0.000470362
0.000443454
0.000427496
0.000420883
0.000422036
0.000430803
0.000447714
0.000474426
0.000513665
0.00056388
0.000612555
0.000643858
0.000657644
0.000661122
0.000655882
0.000643406
0.000625664
0.000588845
0.000520115
0.000446903
0.00040475
0.000393328
0.000393834
0.000395447
0.000439059
0.000439975
0.000441989
0.000445611
0.000450883
0.000457584
0.000465273
0.000473553
0.000482159
0.00049093
0.000499845
0.000508906
0.000518232
0.000527794
0.000538077
0.000549215
0.000561194
0.000574378
0.000582593
0.000578815
0.000557534
0.000520112
0.000478139
0.000442158
0.000417844
0.000403571
0.000397481
0.000398553
0.00040656
0.000422036
0.000446263
0.000482142
0.000532365
0.000588178
0.000630958
0.000652784
0.000659609
0.000658316
0.000649908
0.000635219
0.000615633
0.000577729
0.000508464
0.000434205
0.000390954
0.000379008
0.000379276
0.000380705
0.000440009
0.000440382
0.000441464
0.000443933
0.00044802
0.000453667
0.000460548
0.000468329
0.000476714
0.000485484
0.000494586
0.000504066
0.000514203
0.000524853
0.000536926
0.000550171
0.00056175
0.000566279
0.000557665
0.000528944
0.000489434
0.000448228
0.000415886
0.000393871
0.000381158
0.000375684
0.000376683
0.000384164
0.000398553
0.000420883
0.00045362
0.000500852
0.00055985
0.000613569
0.000644648
0.000655463
0.000656684
0.000652283
0.000641712
0.000625325
0.000604178
0.000565233
0.000495381
0.000420254
0.000376146
0.000363772
0.000363827
0.000365089
0.00043977
0.000439645
0.000439863
0.000441245
0.000444204
0.000448855
0.000455024
0.000462416
0.000470728
0.000479779
0.000489607
0.000500157
0.000511907
0.000524345
0.000536351
0.000545464
0.000546009
0.000529325
0.000498305
0.000458138
0.000419984
0.000390877
0.000371377
0.000359829
0.000354958
0.000356061
0.000363157
0.000376683
0.000397481
0.000427495
0.000470801
0.000530192
0.000592011
0.000632825
0.000649275
0.000652731
0.000650646
0.000644183
0.000632023
0.000614255
0.000591748
0.000551789
0.000481298
0.00040542
0.00036063
0.000347903
0.000347772
0.000348891
0.00043836
0.000437789
0.000437231
0.000437624
0.00043956
0.000443345
0.000448931
0.000456092
0.000464774
0.000474723
0.000485865
0.000497312
0.000508673
0.000519162
0.00052404
0.00051837
0.00049896
0.000465995
0.000427507
0.000393477
0.000367265
0.000349738
0.000339358
0.000335001
0.000336276
0.000343173
0.000356061
0.000375683
0.000403571
0.000443453
0.000499942
0.00056541
0.000617176
0.000641594
0.000647306
0.000646556
0.000642613
0.000634748
0.000621353
0.000602408
0.000578701
0.000537771
0.000466603
0.000390048
0.000344687
0.000331659
0.000331371
0.000332375
0.000435786
0.000434831
0.000433601
0.000433145
0.000434233
0.000437327
0.00044251
0.000449954
0.00045958
0.000470039
0.00048036
0.000489773
0.000496154
0.000497518
0.000488817
0.000466982
0.000434537
0.000399605
0.000368331
0.000344824
0.000328779
0.000319342
0.000315578
0.000317072
0.000323864
0.000336276
0.000354958
0.000381158
0.000417844
0.000470361
0.000537592
0.000598607
0.000630979
0.000639892
0.000640583
0.000638402
0.000633364
0.000624456
0.000610058
0.000590087
0.000565319
0.000523486
0.000451642
0.000374446
0.000328565
0.000315265
0.000314848
0.000315765
0.000432052
0.000430786
0.000429027
0.000427919
0.000428378
0.000430998
0.000436306
0.000444575
0.000453544
0.000461542
0.000467479
0.000471256
0.000469573
0.000458549
0.000436466
0.000405901
0.0003731
0.000344578
0.000322871
0.000308253
0.000299665
0.000296449
0.000298235
0.00030501
0.000317071
0.000335
0.000359829
0.000393871
0.000442158
0.000508173
0.000575791
0.000617781
0.000631648
0.000633376
0.000632307
0.000629269
0.000623408
0.000613684
0.000598421
0.000577543
0.000551845
0.00050919
0.000436676
0.00035885
0.000312477
0.000298924
0.0002984
0.000299257
0.000427194
0.000425715
0.000423617
0.000422092
0.000422167
0.000424831
0.00043087
0.000437905
0.00044268
0.000445669
0.000446318
0.000442372
0.000430335
0.000408115
0.000378664
0.000347941
0.000321337
0.000301344
0.000287843
0.00028015
0.000277496
0.000279586
0.000286416
0.000298235
0.000315578
0.000339358
0.000371377
0.000415885
0.000478139
0.000548787
0.000601216
0.000622208
0.000625158
0.000624597
0.000623097
0.000619513
0.00061305
0.000602656
0.000586633
0.000564964
0.000538473
0.000495076
0.000421898
0.00034345
0.000296597
0.000282801
0.000282192
0.000283011
0.000421341
0.000419772
0.000417533
0.000415836
0.000416023
0.000419428
0.000424264
0.000426126
0.000425618
0.000423379
0.000417285
0.000403633
0.000381193
0.000352618
0.000323537
0.000298644
0.000280009
0.000267647
0.000260714
0.000258615
0.000261024
0.000267937
0.000279586
0.000296449
0.000319342
0.000349738
0.000390877
0.000448228
0.000520111
0.000582199
0.00061067
0.000615518
0.000615482
0.00061514
0.00061342
0.000609433
0.000602515
0.000591537
0.000574844
0.000552499
0.00052534
0.000481283
0.000407465
0.000328397
0.00028106
0.000267023
0.000266346
0.000267147
0.000414714
0.000413154
0.000410984
0.000409614
0.000410646
0.000413249
0.000412574
0.00040849
0.000403033
0.000394129
0.000378735
0.000355752
0.000327879
0.000300046
0.000276553
0.000259128
0.00024764
0.000241397
0.00023977
0.000242479
0.000249497
0.000261024
0.000277496
0.000299665
0.000328779
0.000367265
0.000419984
0.000489433
0.000557534
0.000596395
0.000606028
0.00060589
0.000605833
0.000605494
0.000603542
0.000599279
0.000591955
0.000580445
0.000563169
0.000540254
0.000512538
0.000467906
0.000393484
0.000313796
0.000265964
0.000251684
0.000250951
0.00025175
0.000407541
0.000406108
0.00040461
0.000404237
0.000404835
0.000402067
0.000394644
0.000385553
0.000373606
0.000356115
0.000332369
0.000304802
0.000277912
0.000255385
0.000238789
0.000227975
0.000222233
0.000220989
0.000223938
0.000231047
0.000242479
0.000258615
0.00028015
0.000308253
0.000344823
0.000393477
0.000458138
0.000528944
0.000578815
0.000595379
0.000595619
0.000595395
0.000596018
0.000595684
0.000593618
0.000589131
0.000581431
0.000569453
0.000551681
0.000528292
0.000500116
0.000454997
0.00038002
0.000299715
0.000251371
0.000236844
0.000236065
0.000236872
0.000400617
0.000399666
0.0003993
0.000398302
0.000393845
0.000383747
0.000371158
0.000356065
0.000336324
0.000311497
0.000283879
0.000257391
0.000235391
0.00021924
0.000208792
0.00020336
0.000202352
0.000205459
0.00021261
0.000223938
0.00023977
0.000260714
0.000287843
0.000322871
0.000368331
0.000427507
0.000498305
0.000557665
0.000582593
0.000584648
0.000584144
0.000585321
0.000586223
0.000585897
0.000583774
0.000579059
0.000571004
0.000558617
0.000540428
0.000516647
0.000488094
0.000442571
0.000367097
0.000286184
0.000237315
0.000222536
0.000221716
0.000222542
0.000395169
0.000394657
0.00039238
0.000386396
0.000374641
0.000359343
0.000341443
0.000319458
0.000293362
0.00026529
0.000238787
0.000216845
0.000200749
0.000190349
0.000184976
0.00018403
0.000187164
0.000194276
0.000205459
0.000220989
0.000241397
0.000267648
0.000301344
0.000344578
0.000399606
0.000465995
0.000529325
0.000566279
0.000574377
0.000572978
0.000573715
0.000575507
0.000576535
0.000576269
0.00057405
0.000569083
0.000560703
0.000547964
0.000529424
0.000505321
0.000476462
0.000430612
0.000354706
0.000273202
0.0002238
0.000208766
0.000207911
0.000208759
0.000387308
0.000385297
0.000377667
0.00036549
0.000348872
0.000329015
0.000305148
0.000277776
0.000249066
0.000222222
0.000199994
0.000183597
0.00017293
0.000167349
0.000166247
0.000169247
0.000176204
0.000187164
0.000202353
0.000222233
0.00024764
0.000280009
0.000321338
0.0003731
0.000434537
0.000498961
0.000546009
0.000561749
0.000561194
0.000561357
0.000563676
0.000565797
0.000566984
0.000566771
0.000564414
0.000559198
0.000550529
0.000537486
0.000518654
0.000494291
0.000465184
0.000419077
0.000342803
0.000260736
0.000210804
0.000195517
0.000194629
0.000195504
0.000370168
0.000365062
0.000353962
0.000337931
0.000317403
0.000292438
0.000264133
0.000234845
0.000207581
0.000184887
0.000167961
0.00015677
0.000150735
0.00014926
0.000151947
0.000158611
0.000169247
0.00018403
0.000203361
0.000227975
0.000259128
0.000298644
0.000347941
0.000405902
0.000466983
0.00051837
0.000545463
0.00055017
0.000549215
0.000551091
0.000554007
0.000556342
0.000557669
0.000557412
0.000554868
0.000549406
0.000540471
0.000527164
0.000508087
0.000483509
0.000454201
0.000407898
0.000331322
0.000248731
0.000198283
0.000182749
0.000181832
0.000182735
0.000344694
0.000337439
0.000324201
0.00030466
0.000279782
0.000251296
0.000221838
0.000194355
0.000171266
0.000153774
0.000141948
0.0001353
0.000133282
0.000135499
0.000141737
0.000151947
0.000166247
0.000184977
0.000208793
0.00023879
0.000276554
0.000323537
0.000378664
0.000436466
0.000488818
0.00052404
0.000536351
0.000536925
0.000538076
0.000541275
0.00054453
0.000547079
0.000548479
0.000548113
0.000545364
0.000539663
0.000530485
0.000516945
0.00049766
0.000472907
0.000443436
0.000396987
0.00032017
0.000237104
0.000186171
0.000170404
0.000169459
0.000170389
0.000313495
0.000304603
0.000288169
0.000265039
0.000237588
0.000208771
0.000181606
0.000158481
0.000140641
0.000128275
0.000121016
0.000118398
0.000120061
0.000125789
0.000135499
0.00014926
0.000167349
0.00019035
0.000219241
0.000255386
0.000300047
0.000352619
0.000408116
0.00045855
0.000497518
0.000519162
0.000524345
0.000524852
0.000527794
0.000531758
0.000535294
0.000537994
0.000539365
0.000538834
0.000535862
0.000529924
0.000520515
0.000506764
0.000487299
0.000462398
0.000432793
0.000386236
0.000309231
0.000225754
0.000174385
0.000158405
0.000157434
0.00015839
0.000274672
0.000264063
0.00024531
0.000220742
0.000193873
0.00016795
0.00014547
0.000127784
0.000115224
0.000107569
0.000104464
0.000105621
0.000110851
0.000120061
0.000133282
0.000150735
0.000172931
0.00020075
0.000235392
0.000277913
0.000327881
0.000381195
0.000430336
0.000469574
0.000496154
0.000508673
0.000511907
0.000514202
0.000518232
0.00052254
0.000526269
0.000529011
0.000530258
0.000529516
0.000526302
0.000520122
0.000510488
0.000496537
0.000476909
0.00045188
0.000422162
0.000375522
0.000298376
0.000214564
0.000162825
0.00014666
0.000145667
0.000146645
0.000227948
0.000216673
0.000197854
0.000174857
0.000151568
0.00013077
0.000114036
0.000101894
9.42948e-05
9.10257e-05
9.19004e-05
9.67911e-05
0.000105621
0.000118399
0.0001353
0.000156771
0.000183598
0.000216846
0.000257393
0.000304803
0.000355754
0.000403634
0.000442374
0.000471257
0.000489774
0.000497312
0.000500157
0.000504065
0.000508905
0.000513482
0.000517319
0.000520004
0.000521065
0.000520078
0.000516605
0.000510174
0.000500312
0.000486167
0.000466382
0.000441237
0.00041142
0.000364707
0.000287457
0.000203398
0.000151377
0.000135065
0.000134052
0.000135048
0.000175655
0.000165336
0.000149
0.000130268
0.000112592
9.79103e-05
8.70507e-05
8.01906e-05
7.72907e-05
7.82995e-05
8.31809e-05
9.19005e-05
0.000104465
0.000121017
0.000141948
0.000167962
0.000199995
0.000238788
0.00028388
0.00033237
0.000378737
0.000417287
0.000446319
0.00046748
0.00048036
0.000485865
0.000489607
0.000494585
0.000499845
0.000504567
0.000508392
0.000510914
0.000511725
0.000510454
0.000506694
0.000499994
0.000489895
0.000475547
0.000455604
0.000430346
0.000400439
0.000353647
0.000276317
0.000192113
0.000139918
0.000123506
0.000122477
0.000123486
0.000121469
0.000113621
0.000101822
8.90251e-05
7.77679e-05
6.9264e-05
6.40046e-05
6.21779e-05
6.39032e-05
6.92661e-05
7.82996e-05
9.10259e-05
0.000107569
0.000128275
0.000153774
0.000184888
0.000222223
0.000265292
0.000311498
0.000356117
0.00039413
0.000423381
0.00044567
0.000461543
0.000470039
0.000474723
0.00047978
0.000485484
0.00049093
0.000495668
0.000499364
0.000501637
0.00050214
0.000500547
0.000496471
0.000489481
0.000479127
0.000464562
0.000444448
0.000419075
0.000389079
0.000342187
0.000264789
0.000180558
0.000128317
0.00011186
0.000110822
0.000111837
6.97164e-05
6.51524e-05
5.87356e-05
5.22256e-05
4.72044e-05
4.44689e-05
4.44863e-05
4.75899e-05
5.40205e-05
6.39032e-05
7.72907e-05
9.42949e-05
0.000115224
0.000140642
0.000171266
0.000207582
0.000249067
0.000293364
0.000336325
0.000373608
0.000403035
0.00042562
0.000442681
0.000453545
0.00045958
0.000464775
0.000470728
0.000476715
0.000482159
0.000486756
0.000490183
0.00049211
0.000492241
0.000490277
0.000485849
0.000478537
0.000467901
0.000453096
0.000432788
0.000407289
0.000377201
0.000330171
0.000252704
0.000168574
0.000116438
0.000100003
9.89601e-05
9.99748e-05
2.38852e-05
2.25107e-05
2.10851e-05
2.02061e-05
2.07112e-05
2.32216e-05
2.82845e-05
3.63253e-05
4.75898e-05
6.21778e-05
8.01905e-05
0.000101894
0.000127784
0.000158481
0.000194355
0.000234845
0.000277777
0.000319459
0.000356067
0.000385554
0.000408492
0.000426127
0.000437906
0.000444575
0.000449955
0.000456093
0.000462416
0.000468329
0.000473553
0.000477812
0.000480814
0.000482287
0.000481968
0.000479572
0.000474742
0.000467068
0.000456114
0.000441031
0.000420497
0.000394853
0.000364661
0.000317436
0.000239882
0.000155996
0.00010414
8.77996e-05
8.6759e-05
8.77652e-05
-1.44466e-05
-1.33188e-05
-1.08255e-05
-7.15568e-06
-1.94373e-06
5.35267e-06
1.52988e-05
2.82844e-05
4.44861e-05
6.40043e-05
8.70504e-05
0.000114036
0.00014547
0.000181606
0.000221838
0.000264134
0.000305149
0.000341445
0.00037116
0.000394645
0.000412575
0.000424265
0.000430871
0.000436307
0.000442511
0.000448932
0.000455025
0.000460549
0.000465273
0.000468949
0.000471342
0.00047222
0.000471338
0.000468421
0.000463116
0.000455017
0.000443687
0.000428271
0.000407459
0.000381636
0.000351316
0.000303813
0.000226132
0.000142649
9.1271e-05
7.51116e-05
7.40792e-05
7.50662e-05
-4.55007e-05
-4.26711e-05
-3.73858e-05
-3.01893e-05
-2.09712e-05
-9.28194e-06
5.3525e-06
2.32213e-05
4.44685e-05
6.92635e-05
9.79098e-05
0.00013077
0.000167949
0.000208771
0.000251296
0.000292438
0.000329015
0.000359344
0.000383748
0.000402068
0.00041325
0.000419429
0.000424832
0.000430999
0.000437328
0.000443346
0.000448856
0.000453667
0.000457585
0.000460424
0.000462
0.000462104
0.000460507
0.000456939
0.000451046
0.000442421
0.000430623
0.000414787
0.000393615
0.000367554
0.000337058
0.000289156
0.000211284
0.000128375
7.77028e-05
6.18204e-05
6.08007e-05
6.17536e-05
-7.04054e-05
-6.64799e-05
-5.9236e-05
-4.9277e-05
-3.66296e-05
-2.09714e-05
-1.94407e-06
2.07107e-05
4.72038e-05
7.77672e-05
0.000112591
0.000151567
0.000193872
0.000237588
0.000279782
0.000317403
0.000348873
0.000374641
0.000393846
0.000404836
0.000410646
0.000416023
0.000422168
0.000428379
0.000434234
0.000439561
0.000444205
0.000448021
0.000450884
0.000452663
0.000453208
0.000452338
0.000449836
0.00044544
0.000438794
0.00042949
0.000417082
0.000400689
0.00037903
0.000352631
0.000321875
0.000273415
0.000195257
0.000113101
6.33814e-05
4.78808e-05
4.68751e-05
4.77722e-05
-9.02486e-05
-8.55887e-05
-7.69163e-05
-6.47758e-05
-4.92772e-05
-3.01897e-05
-7.1562e-06
2.02054e-05
5.22247e-05
8.90241e-05
0.000130267
0.000174856
0.000220741
0.000265038
0.000304659
0.00033793
0.000365489
0.000386395
0.000398302
0.000404238
0.000409614
0.000415836
0.000422092
0.00042792
0.000433146
0.000437625
0.000441246
0.000443934
0.000445612
0.000446191
0.000445552
0.000443537
0.000439947
0.000434531
0.00042694
0.000416766
0.000403561
0.000386432
0.000364114
0.000337237
0.000306097
0.000256888
0.000178333
9.70906e-05
4.85595e-05
3.354e-05
3.25442e-05
3.33582e-05
-0.000105583
-0.000100403
-9.0687e-05
-7.69164e-05
-5.92363e-05
-3.73863e-05
-1.08262e-05
2.10842e-05
5.87344e-05
0.000101821
0.000148999
0.000197852
0.000245308
0.000288168
0.000324199
0.000353961
0.000377666
0.00039238
0.0003993
0.00040461
0.000410984
0.000417533
0.000423618
0.000429028
0.000433602
0.000437231
0.000439864
0.000441465
0.00044199
0.000441376
0.00043953
0.000436314
0.000431546
0.000424992
0.000416316
0.00040512
0.000390958
0.000372928
0.000349794
0.000322298
0.000290643
0.000240533
0.000161495
8.12523e-05
3.40473e-05
1.95679e-05
1.85738e-05
1.92794e-05
-0.000116331
-0.000110799
-0.000100403
-8.55889e-05
-6.64802e-05
-4.26717e-05
-1.33196e-05
2.25096e-05
6.5151e-05
0.000113619
0.000165334
0.000216671
0.000264061
0.000304601
0.000337437
0.00036506
0.000385296
0.000394656
0.000399666
0.000406108
0.000413154
0.000419772
0.000425715
0.000430786
0.000434831
0.00043779
0.000439645
0.000440383
0.000439976
0.000438377
0.000435507
0.000431242
0.000425416
0.00041781
0.000408104
0.000395913
0.000380801
0.000361861
0.000337891
0.00030974
0.000277529
0.000226521
0.000147006
6.76815e-05
2.17077e-05
7.72919e-06
6.72814e-06
7.32112e-06
-0.00012201
-0.000116331
-0.000105583
-9.02488e-05
-7.04058e-05
-4.55012e-05
-1.44474e-05
2.3884e-05
6.97148e-05
0.000121467
0.000175653
0.000227946
0.00027467
0.000313492
0.000344692
0.000370166
0.000387307
0.000395168
0.000400617
0.00040754
0.000414713
0.000421341
0.000427194
0.000432052
0.000435786
0.00043836
0.00043977
0.00044001
0.00043906
0.00043688
0.000433396
0.000428493
0.000422011
0.000413743
0.000403377
0.000390538
0.000374796
0.000355256
0.000330721
0.000302098
0.000269517
0.000217951
0.000138092
5.93087e-05
1.4128e-05
4.95281e-07
-5.06622e-07
1.7648e-09
)
;

boundaryField
{
    inlet
    {
        type            cyclic;
    }
    outlet
    {
        type            cyclic;
    }
    walls
    {
        type            zeroGradient;
    }
    symPlanes
    {
        type            symmetry;
    }
}


// ************************************************************************* //
