/*--------------------------------*- C++ -*----------------------------------*\
| =========                 |                                                 |
| \\      /  F ield         | OpenFOAM: The Open Source CFD Toolbox           |
|  \\    /   O peration     | Version:  2312                                  |
|   \\  /    A nd           | Website:  www.openfoam.com                      |
|    \\/     M anipulation  |                                                 |
\*---------------------------------------------------------------------------*/
FoamFile
{
    version     2.0;
    format      ascii;
    arch        "LSB;label=32;scalar=64";
    class       surfaceScalarField;
    location    "1919";
    object      phi;
}
// * * * * * * * * * * * * * * * * * * * * * * * * * * * * * * * * * * * * * //

dimensions      [0 3 -1 0 0 0 0];

oriented        oriented;

internalField   nonuniform List<scalar> 
4512
(
-1.83769e-08
1.83893e-08
-3.36019e-08
1.52248e-08
-4.49965e-08
1.13949e-08
-5.31539e-08
8.15676e-09
-5.91678e-08
6.01392e-09
-6.39427e-08
4.77474e-09
-6.80583e-08
4.11565e-09
-7.18242e-08
3.76559e-09
-7.54063e-08
3.58201e-09
-7.89053e-08
3.49893e-09
-8.2396e-08
3.49083e-09
-8.59406e-08
3.54451e-09
-8.95867e-08
3.64619e-09
-9.33682e-08
3.78141e-09
-9.73009e-08
3.93286e-09
-1.01383e-07
4.08248e-09
-1.05596e-07
4.21224e-09
-1.09897e-07
4.30096e-09
-1.14224e-07
4.32775e-09
-1.18492e-07
4.26727e-09
-1.22584e-07
4.09255e-09
-1.26358e-07
3.77365e-09
-1.29635e-07
3.27726e-09
-1.32204e-07
2.56913e-09
-1.33824e-07
1.61981e-09
-1.3424e-07
4.16134e-10
-1.33201e-07
-1.03918e-09
-1.30456e-07
-2.74466e-09
-1.258e-07
-4.65609e-09
-1.19108e-07
-6.69232e-09
-1.10366e-07
-8.7419e-09
-9.96921e-08
-1.06742e-08
-8.73277e-08
-1.23644e-08
-7.36132e-08
-1.37145e-08
-5.89299e-08
-1.46833e-08
-4.39109e-08
-1.5019e-08
-2.94574e-08
-1.44535e-08
-1.66396e-08
-1.28179e-08
-6.51614e-09
-1.01235e-08
1.43045e-10
-6.6592e-09
3.20703e-09
-3.064e-09
3.51023e-09
-3.0322e-10
2.46021e-09
1.05001e-09
1.24281e-09
1.21738e-09
4.28899e-10
8.13898e-10
7.74155e-11
3.51471e-10
-5.12022e-17
7.74045e-11
-2.83758e-15
-5.25988e-08
7.09874e-08
-9.6738e-08
5.93628e-08
-1.30519e-07
4.51755e-08
-1.55446e-07
3.30813e-08
-1.74315e-07
2.48824e-08
-1.89527e-07
1.9986e-08
-2.02647e-07
1.72353e-08
-2.14551e-07
1.56683e-08
-2.25724e-07
1.4754e-08
-2.3647e-07
1.4244e-08
-2.47014e-07
1.40344e-08
-2.57538e-07
1.40684e-08
-2.68182e-07
1.42902e-08
-2.79043e-07
1.46419e-08
-2.90167e-07
1.50564e-08
-3.01549e-07
1.54644e-08
-3.13133e-07
1.57953e-08
-3.24802e-07
1.597e-08
-3.36382e-07
1.59075e-08
-3.47628e-07
1.55135e-08
-3.58223e-07
1.46869e-08
-3.67767e-07
1.33176e-08
-3.75776e-07
1.12857e-08
-3.81679e-07
8.47199e-09
-3.84837e-07
4.7781e-09
-3.84584e-07
1.6275e-10
-3.80267e-07
-5.35609e-09
-3.71273e-07
-1.17386e-08
-3.57125e-07
-1.88039e-08
-3.37573e-07
-2.62447e-08
-3.12661e-07
-3.36538e-08
-2.8277e-07
-4.05652e-08
-2.48598e-07
-4.6537e-08
-2.11081e-07
-5.12315e-08
-1.71304e-07
-5.44599e-08
-1.30898e-07
-5.54257e-08
-9.20742e-08
-5.32771e-08
-5.74039e-08
-4.74883e-08
-2.94115e-08
-3.81159e-08
-9.96438e-09
-2.61064e-08
5.33899e-10
-1.35623e-08
3.88997e-09
-3.65933e-09
3.31383e-09
1.62612e-09
1.64689e-09
2.88429e-09
4.03345e-10
2.05741e-09
-7.74089e-11
8.32198e-10
-7.74134e-11
7.73893e-11
-7.74194e-11
-8.485e-08
1.55838e-07
-1.56856e-07
1.31369e-07
-2.13118e-07
1.01439e-07
-2.5575e-07
7.57125e-08
-2.88783e-07
5.79149e-08
-3.15766e-07
4.69699e-08
-3.39069e-07
4.05377e-08
-3.60066e-07
3.66652e-08
-3.7955e-07
3.42388e-08
-3.98035e-07
3.27284e-08
-4.15897e-07
3.1897e-08
-4.3344e-07
3.1611e-08
-4.50892e-07
3.17424e-08
-4.6841e-07
3.21603e-08
-4.86071e-07
3.27173e-08
-5.03868e-07
3.32621e-08
-5.21714e-07
3.36409e-08
-5.39427e-07
3.36833e-08
-5.56735e-07
3.32154e-08
-5.73259e-07
3.20372e-08
-5.88507e-07
2.99355e-08
-6.01871e-07
2.66812e-08
-6.12616e-07
2.20308e-08
-6.19893e-07
1.57485e-08
-6.2276e-07
7.645e-09
-6.2024e-07
-2.35636e-09
-6.11397e-07
-1.41996e-08
-5.95385e-07
-2.775e-08
-5.7159e-07
-4.25997e-08
-5.39738e-07
-5.80961e-08
-4.99996e-07
-7.33962e-08
-4.53011e-07
-8.755e-08
-3.99891e-07
-9.96575e-08
-3.42074e-07
-1.09048e-07
-2.81137e-07
-1.15397e-07
-2.19342e-07
-1.1722e-07
-1.59697e-07
-1.12922e-07
-1.05698e-07
-1.01487e-07
-6.0905e-08
-8.29092e-08
-2.82491e-08
-5.87624e-08
-8.90389e-09
-3.29075e-08
-7.53055e-10
-1.18102e-08
7.62622e-10
1.10402e-10
-7.00093e-11
3.7169e-09
-8.32239e-10
2.81961e-09
-8.32235e-10
8.32171e-10
-3.51485e-10
-4.03381e-10
-4.28908e-10
-1.1341e-07
2.69247e-07
-2.10848e-07
2.28805e-07
-2.88733e-07
1.79323e-07
-3.49403e-07
1.36382e-07
-3.97538e-07
1.0605e-07
-4.37376e-07
8.68073e-08
-4.7183e-07
7.49906e-08
-5.0267e-07
6.75051e-08
-5.30968e-07
6.25356e-08
-5.57434e-07
5.91943e-08
-5.82598e-07
5.70611e-08
-6.06877e-07
5.58897e-08
-6.30584e-07
5.54487e-08
-6.53931e-07
5.55069e-08
-6.77023e-07
5.58091e-08
-6.99857e-07
5.60963e-08
-7.22322e-07
5.61059e-08
-7.44192e-07
5.55523e-08
-7.6512e-07
5.41436e-08
-7.84633e-07
5.15498e-08
-8.02119e-07
4.74212e-08
-8.16826e-07
4.13887e-08
-8.27863e-07
3.30678e-08
-8.34214e-07
2.20985e-08
-8.34765e-07
8.19638e-09
-8.28368e-07
-8.75307e-09
-8.1393e-07
-2.86384e-08
-7.90524e-07
-5.11555e-08
-7.57526e-07
-7.55979e-08
-7.1473e-07
-1.00893e-07
-6.62444e-07
-1.25682e-07
-6.01547e-07
-1.48447e-07
-5.33463e-07
-1.67741e-07
-4.60013e-07
-1.82499e-07
-3.82936e-07
-1.92474e-07
-3.04677e-07
-1.95479e-07
-2.28425e-07
-1.89174e-07
-1.57941e-07
-1.71972e-07
-9.73831e-08
-1.43467e-07
-5.09148e-08
-1.05231e-07
-2.14369e-08
-6.23855e-08
-7.41462e-09
-2.58325e-08
-3.17741e-09
-4.12683e-09
-2.81973e-09
3.35919e-09
-2.81972e-09
2.81957e-09
-2.05747e-09
6.98972e-11
-8.13918e-10
-1.64695e-09
-1.24283e-09
-1.36295e-07
4.05543e-07
-2.55011e-07
3.47521e-07
-3.52189e-07
2.76503e-07
-4.29993e-07
2.14185e-07
-4.93115e-07
1.69172e-07
-5.45976e-07
1.39669e-07
-5.91744e-07
1.20758e-07
-6.32449e-07
1.08211e-07
-6.69386e-07
9.94723e-08
-7.03444e-07
9.32534e-08
-7.35292e-07
8.8909e-08
-7.65448e-07
8.60456e-08
-7.94299e-07
8.42996e-08
-8.22106e-07
8.33145e-08
-8.49002e-07
8.27055e-08
-8.74992e-07
8.20861e-08
-8.99954e-07
8.10683e-08
-9.23638e-07
7.92357e-08
-9.45659e-07
7.61655e-08
-9.65496e-07
7.1386e-08
-9.82477e-07
6.44022e-08
-9.95788e-07
5.46998e-08
-1.00447e-06
4.17548e-08
-1.00747e-06
2.50942e-08
-1.00362e-06
4.35051e-09
-9.91745e-07
-2.06323e-08
-9.70697e-07
-4.96867e-08
-9.39597e-07
-8.22556e-08
-8.97902e-07
-1.17293e-07
-8.45522e-07
-1.53272e-07
-7.82915e-07
-1.8829e-07
-7.11133e-07
-2.20228e-07
-6.31827e-07
-2.47047e-07
-5.47173e-07
-2.67154e-07
-4.5903e-07
-2.80617e-07
-3.69799e-07
-2.8471e-07
-2.82337e-07
-2.76636e-07
-1.99931e-07
-2.54378e-07
-1.26548e-07
-2.16851e-07
-6.73002e-08
-1.64478e-07
-2.79489e-08
-1.01737e-07
-8.82151e-09
-4.49599e-08
-3.35943e-09
-9.58894e-09
-3.35939e-09
3.35913e-09
-3.71703e-09
3.17718e-09
-2.88436e-09
-7.62791e-10
-1.21741e-09
-3.31393e-09
-2.46024e-09
-1.53348e-07
5.58891e-07
-2.88704e-07
4.82877e-07
-4.01912e-07
3.89712e-07
-4.947e-07
3.06972e-07
-5.71358e-07
2.4583e-07
-6.36139e-07
2.0445e-07
-6.92239e-07
1.76858e-07
-7.41822e-07
1.57793e-07
-7.86335e-07
1.43986e-07
-8.26813e-07
1.33731e-07
-8.64038e-07
1.26134e-07
-8.98618e-07
1.20625e-07
-9.31005e-07
1.16686e-07
-9.61505e-07
1.13815e-07
-9.9028e-07
1.1148e-07
-1.01735e-06
1.09154e-07
-1.04259e-06
1.06313e-07
-1.06576e-06
1.024e-07
-1.08645e-06
9.68552e-08
-1.10412e-06
8.90599e-08
-1.11809e-06
7.83712e-08
-1.12752e-06
6.41293e-08
-1.13144e-06
4.56716e-08
-1.12876e-06
2.24175e-08
-1.11834e-06
-6.06673e-09
-1.09899e-06
-3.99846e-08
-1.06959e-06
-7.9085e-08
-1.02931e-06
-1.22535e-07
-9.77679e-07
-1.68926e-07
-9.14706e-07
-2.16245e-07
-8.40972e-07
-2.62023e-07
-7.5768e-07
-3.03521e-07
-6.66623e-07
-3.38104e-07
-5.70205e-07
-3.63572e-07
-4.71645e-07
-3.79177e-07
-3.73917e-07
-3.82438e-07
-2.79749e-07
-3.70803e-07
-1.91963e-07
-3.42164e-07
-1.13665e-07
-2.95149e-07
-4.9367e-08
-2.28776e-07
-7.40128e-09
-1.43703e-07
9.58857e-09
-6.19498e-08
9.58861e-09
-9.58899e-09
4.12659e-09
8.82112e-09
-1.10553e-10
7.4143e-09
-1.6262e-09
7.52825e-10
-1.05003e-09
-3.89011e-09
-3.51028e-09
-1.66474e-07
7.25364e-07
-3.14897e-07
6.31301e-07
-4.41039e-07
5.15854e-07
-5.46206e-07
4.1214e-07
-6.34233e-07
3.33857e-07
-7.09097e-07
2.79314e-07
-7.73902e-07
2.41664e-07
-8.30838e-07
2.1473e-07
-8.81435e-07
1.94583e-07
-9.26821e-07
1.79118e-07
-9.67866e-07
1.67179e-07
-1.00525e-06
1.58013e-07
-1.03949e-06
1.50926e-07
-1.07094e-06
1.45258e-07
-1.09977e-06
1.40318e-07
-1.12604e-06
1.35425e-07
-1.14964e-06
1.2991e-07
-1.17031e-06
1.23065e-07
-1.18764e-06
1.14185e-07
-1.20107e-06
1.02497e-07
-1.2099e-06
8.72009e-08
-1.21326e-06
6.74837e-08
-1.21012e-06
4.25327e-08
-1.19935e-06
1.16488e-08
-1.17974e-06
-2.56781e-08
-1.15006e-06
-6.96682e-08
-1.10917e-06
-1.19969e-07
-1.05618e-06
-1.75531e-07
-9.9052e-07
-2.34582e-07
-9.12166e-07
-2.946e-07
-8.21697e-07
-3.52492e-07
-7.20473e-07
-4.04745e-07
-6.10769e-07
-4.47808e-07
-4.95894e-07
-4.78447e-07
-3.8135e-07
-4.93721e-07
-2.71804e-07
-4.91984e-07
-1.71558e-07
-4.71049e-07
-8.49732e-08
-4.28749e-07
-1.5629e-08
-3.64493e-07
3.47432e-08
-2.79149e-07
6.19493e-08
-1.70909e-07
6.19494e-08
-6.19498e-08
4.49596e-08
7.40078e-09
2.58323e-08
2.79484e-08
1.181e-08
2.14365e-08
3.65924e-09
8.90359e-09
3.03191e-10
-5.34078e-10
-3.20709e-09
-1.77011e-07
9.02376e-07
-3.35919e-07
7.90208e-07
-4.72521e-07
6.52457e-07
-5.87781e-07
5.274e-07
-6.85137e-07
4.31213e-07
-7.68284e-07
3.62461e-07
-8.40182e-07
3.13562e-07
-9.02982e-07
2.7753e-07
-9.58238e-07
2.49839e-07
-1.00713e-06
2.28013e-07
-1.0506e-06
2.10647e-07
-1.08938e-06
1.96794e-07
-1.12404e-06
1.85581e-07
-1.15496e-06
1.76176e-07
-1.18235e-06
1.67713e-07
-1.20627e-06
1.59349e-07
-1.22662e-06
1.50253e-07
-1.24311e-06
1.39552e-07
-1.25531e-06
1.26386e-07
-1.26262e-06
1.09807e-07
-1.26426e-06
8.88478e-08
-1.25931e-06
6.25286e-08
-1.24665e-06
2.98725e-08
-1.22505e-06
-9.94634e-09
-1.19321e-06
-5.75196e-08
-1.14982e-06
-1.13061e-07
-1.09367e-06
-1.76113e-07
-1.02376e-06
-2.45444e-07
-9.39444e-07
-3.189e-07
-8.40694e-07
-3.9335e-07
-7.28305e-07
-4.64882e-07
-6.04267e-07
-5.28782e-07
-4.7221e-07
-5.79865e-07
-3.37523e-07
-6.13134e-07
-2.07187e-07
-6.24057e-07
-8.8137e-08
-6.11034e-07
1.33689e-08
-5.72555e-07
9.22154e-08
-5.07596e-07
1.45089e-07
-4.17366e-07
1.70908e-07
-3.04968e-07
1.70908e-07
-1.70909e-07
1.43702e-07
-3.47437e-08
1.01737e-07
4.93665e-08
6.23852e-08
6.72997e-08
3.29073e-08
5.09143e-08
1.35622e-08
2.82487e-08
3.06397e-09
9.96416e-09
-1.43121e-10
-1.85497e-07
1.08787e-06
-3.52928e-07
9.57639e-07
-4.981e-07
7.9763e-07
-6.21649e-07
6.50948e-07
-7.26633e-07
5.36198e-07
-8.16481e-07
4.52308e-07
-8.94001e-07
3.91083e-07
-9.61286e-07
3.44815e-07
-1.01989e-06
3.08442e-07
-1.07102e-06
2.79147e-07
-1.11567e-06
2.5529e-07
-1.1546e-06
2.35731e-07
-1.18843e-06
2.19407e-07
-1.21756e-06
2.05304e-07
-1.24221e-06
1.92367e-07
-1.26243e-06
1.79571e-07
-1.27809e-06
1.65906e-07
-1.28885e-06
1.50316e-07
-1.29423e-06
1.31763e-07
-1.29353e-06
1.0911e-07
-1.28589e-06
8.12069e-08
-1.27026e-06
4.68955e-08
-1.24541e-06
5.03002e-09
-1.21003e-06
-4.5327e-08
-1.16272e-06
-1.04835e-07
-1.10208e-06
-1.73695e-07
-1.0269e-06
-2.51296e-07
-9.36173e-07
-3.36171e-07
-8.29425e-07
-4.25648e-07
-7.07058e-07
-5.15716e-07
-5.70743e-07
-6.01196e-07
-4.2405e-07
-6.75476e-07
-2.72981e-07
-7.30933e-07
-1.25599e-07
-7.60516e-07
9.83503e-09
-7.59491e-07
1.25468e-07
-7.26667e-07
2.15248e-07
-6.62335e-07
2.75437e-07
-5.67785e-07
3.04968e-07
-4.46897e-07
3.04968e-07
-3.04968e-07
2.79148e-07
-1.45089e-07
2.28776e-07
1.56284e-08
1.64478e-07
1.13664e-07
1.0523e-07
1.26547e-07
5.87622e-08
9.73825e-08
2.61063e-08
6.09046e-08
6.65916e-09
2.94113e-08
6.51604e-09
-1.9262e-07
1.28049e-06
-3.67203e-07
1.13222e-06
-5.1949e-07
9.49918e-07
-6.49803e-07
7.81262e-07
-7.60873e-07
6.47267e-07
-8.55905e-07
5.47341e-07
-9.37597e-07
4.72775e-07
-1.00799e-06
4.15209e-07
-1.06863e-06
3.69083e-07
-1.12075e-06
3.31265e-07
-1.16535e-06
2.99889e-07
-1.20324e-06
2.73626e-07
-1.23505e-06
2.51211e-07
-1.26118e-06
2.31434e-07
-1.28184e-06
2.13031e-07
-1.29704e-06
1.94773e-07
-1.30659e-06
1.7545e-07
-1.31006e-06
1.53792e-07
-1.30687e-06
1.2857e-07
-1.29619e-06
9.84337e-08
-1.27702e-06
6.20349e-08
-1.24816e-06
1.80371e-08
-1.20826e-06
-3.48699e-08
-1.15589e-06
-9.77018e-08
-1.08956e-06
-1.71161e-07
-1.00787e-06
-2.55384e-07
-9.09701e-07
-3.49469e-07
-7.94314e-07
-4.51557e-07
-6.61832e-07
-5.5813e-07
-5.13831e-07
-6.63717e-07
-3.53878e-07
-7.61149e-07
-1.88225e-07
-8.4113e-07
-2.57838e-08
-8.93374e-07
1.23297e-07
-9.09598e-07
2.50141e-07
-8.86335e-07
3.48302e-07
-8.24828e-07
4.14296e-07
-7.28329e-07
4.46896e-07
-6.00385e-07
4.46896e-07
-4.46897e-07
4.17366e-07
-2.75438e-07
3.64493e-07
-9.2216e-08
2.95148e-07
8.49726e-08
2.1685e-07
1.91963e-07
1.43467e-07
1.99931e-07
8.2909e-08
1.5794e-07
3.81157e-08
1.05698e-07
1.01234e-08
5.74035e-08
1.66395e-08
-1.98781e-07
1.47927e-06
-3.79476e-07
1.31292e-06
-5.37718e-07
1.10816e-06
-6.73507e-07
9.17051e-07
-7.8928e-07
7.63041e-07
-8.88084e-07
6.46145e-07
-9.7255e-07
5.57242e-07
-1.0447e-06
4.8736e-07
-1.10608e-06
4.30466e-07
-1.15794e-06
3.83121e-07
-1.20129e-06
3.43238e-07
-1.23695e-06
3.09292e-07
-1.26555e-06
2.79803e-07
-1.28746e-06
2.53349e-07
-1.30286e-06
2.28427e-07
-1.31167e-06
2.03582e-07
-1.31359e-06
1.77374e-07
-1.30809e-06
1.4829e-07
-1.2944e-06
1.14887e-07
-1.27155e-06
7.55809e-08
-1.23834e-06
2.8823e-08
-1.19341e-06
-2.68965e-08
-1.13523e-06
-9.30427e-08
-1.06228e-06
-1.70659e-07
-9.7302e-07
-2.60417e-07
-8.66147e-07
-3.62257e-07
-7.40937e-07
-4.74679e-07
-5.97417e-07
-5.95078e-07
-4.37054e-07
-7.18493e-07
-2.63992e-07
-8.36779e-07
-8.50115e-08
-9.40129e-07
9.05324e-08
-1.01667e-06
2.51861e-07
-1.0547e-06
3.88925e-07
-1.04666e-06
4.94699e-07
-9.92108e-07
5.65493e-07
-8.95623e-07
6.00384e-07
-7.6322e-07
6.00384e-07
-6.00385e-07
5.67784e-07
-4.14297e-07
5.07595e-07
-2.15249e-07
4.28748e-07
-1.33695e-08
3.42163e-07
1.71558e-07
2.54377e-07
2.79748e-07
1.71971e-07
2.82337e-07
1.01487e-07
2.28424e-07
4.74881e-08
1.59697e-07
1.28178e-08
9.20738e-08
2.94573e-08
-2.04071e-07
1.68335e-06
-3.89974e-07
1.49882e-06
-5.5319e-07
1.27138e-06
-6.93365e-07
1.05723e-06
-8.1264e-07
8.82315e-07
-9.13931e-07
7.47436e-07
-9.99856e-07
6.43166e-07
-1.07246e-06
5.59963e-07
-1.13331e-06
4.91315e-07
-1.18366e-06
4.33475e-07
-1.22455e-06
3.84124e-07
-1.25678e-06
3.41522e-07
-1.28093e-06
3.03958e-07
-1.29735e-06
2.69768e-07
-1.30611e-06
2.37183e-07
-1.30701e-06
2.0449e-07
-1.29963e-06
1.69987e-07
-1.28322e-06
1.31886e-07
-1.25685e-06
8.85136e-08
-1.2193e-06
3.80292e-08
-1.16917e-06
-2.13084e-08
-1.10489e-06
-9.11709e-08
-1.02476e-06
-1.73173e-07
-9.27165e-07
-2.68257e-07
-8.10661e-07
-3.76922e-07
-6.74314e-07
-4.98604e-07
-5.18296e-07
-6.30697e-07
-3.44362e-07
-7.69011e-07
-1.56668e-07
-9.06187e-07
3.63012e-08
-1.02975e-06
2.23483e-07
-1.12731e-06
3.94017e-07
-1.18721e-06
5.38827e-07
-1.19951e-06
6.50853e-07
-1.15869e-06
7.26037e-07
-1.06729e-06
7.6322e-07
-9.32805e-07
7.6322e-07
-7.6322e-07
7.28329e-07
-5.65494e-07
6.62334e-07
-3.48302e-07
5.72554e-07
-1.25469e-07
4.71048e-07
8.81364e-08
3.70803e-07
2.71803e-07
2.76636e-07
3.73916e-07
1.89174e-07
3.69798e-07
1.12921e-07
3.04676e-07
5.3277e-08
2.19341e-07
1.44535e-08
1.30897e-07
4.39107e-08
-2.08466e-07
1.89181e-06
-3.98703e-07
1.68906e-06
-5.66003e-07
1.43868e-06
-7.09609e-07
1.20083e-06
-8.31326e-07
1.00403e-06
-9.3394e-07
8.5005e-07
-1.02009e-06
7.29312e-07
-1.09187e-06
6.31747e-07
-1.15091e-06
5.5036e-07
-1.19851e-06
4.81067e-07
-1.23567e-06
4.21286e-07
-1.26319e-06
3.6904e-07
-1.28158e-06
3.22349e-07
-1.29109e-06
2.7928e-07
-1.29166e-06
2.37754e-07
-1.28294e-06
1.95769e-07
-1.26428e-06
1.51333e-07
-1.23474e-06
1.02338e-07
-1.1931e-06
4.68756e-08
-1.13789e-06
-1.71739e-08
-1.06747e-06
-9.1733e-08
-9.80027e-07
-1.78614e-07
-8.73662e-07
-2.79538e-07
-7.46858e-07
-3.95061e-07
-5.9852e-07
-5.2526e-07
-4.28409e-07
-6.68715e-07
-2.38674e-07
-8.20431e-07
-3.42687e-08
-9.73417e-07
1.75051e-07
-1.11551e-06
3.7637e-07
-1.23107e-06
5.55618e-07
-1.30656e-06
7.03464e-07
-1.33505e-06
8.16572e-07
-1.31262e-06
8.93972e-07
-1.23609e-06
9.32805e-07
-1.10612e-06
9.32805e-07
-9.32805e-07
8.95622e-07
-7.26037e-07
8.24827e-07
-4.94699e-07
7.26666e-07
-2.50141e-07
6.11033e-07
-9.83561e-09
4.91983e-07
2.07186e-07
3.82438e-07
3.81349e-07
2.84709e-07
4.71644e-07
1.95479e-07
4.59029e-07
1.1722e-07
3.82935e-07
5.54256e-08
2.81136e-07
1.5019e-08
1.71304e-07
5.89297e-08
-2.11869e-07
2.10368e-06
-4.05514e-07
1.8827e-06
-5.76024e-07
1.60919e-06
-7.22179e-07
1.34699e-06
-8.45383e-07
1.12724e-06
-9.48255e-07
9.52921e-07
-1.03345e-06
8.14509e-07
-1.10318e-06
7.01471e-07
-1.15913e-06
6.06317e-07
-1.20265e-06
5.24586e-07
-1.23475e-06
4.53385e-07
-1.25616e-06
3.90454e-07
-1.26731e-06
3.33497e-07
-1.26831e-06
2.80274e-07
-1.2589e-06
2.28348e-07
-1.23852e-06
1.75394e-07
-1.20629e-06
1.19095e-07
-1.16093e-06
5.69861e-08
-1.10097e-06
-1.30844e-08
-1.02459e-06
-9.35579e-08
-9.29845e-07
-1.86479e-07
-8.14725e-07
-2.93734e-07
-6.77284e-07
-4.16978e-07
-5.16288e-07
-5.56057e-07
-3.31525e-07
-7.10023e-07
-1.23898e-07
-8.76342e-07
9.9361e-08
-1.04369e-06
3.27974e-07
-1.20203e-06
5.43902e-07
-1.33143e-06
7.32335e-07
-1.4195e-06
8.83762e-07
-1.45799e-06
9.95298e-07
-1.44659e-06
1.06854e-06
-1.38586e-06
1.10612e-06
-1.27367e-06
1.10612e-06
-1.10612e-06
1.06729e-06
-8.93973e-07
9.92108e-07
-6.50853e-07
8.86334e-07
-3.88926e-07
7.59491e-07
-1.23298e-07
6.24057e-07
1.25598e-07
4.93721e-07
3.37522e-07
3.79176e-07
4.95893e-07
2.80617e-07
5.70204e-07
1.92474e-07
5.47172e-07
1.15397e-07
4.60011e-07
5.44598e-08
3.42073e-07
1.46833e-08
2.1108e-07
7.3613e-08
-2.14127e-07
2.31781e-06
-4.10139e-07
2.07871e-06
-5.8293e-07
1.78198e-06
-7.30768e-07
1.49483e-06
-8.54569e-07
1.25104e-06
-9.56713e-07
1.05506e-06
-1.03985e-06
8.97652e-07
-1.1063e-06
7.67917e-07
-1.15786e-06
6.5788e-07
-1.19593e-06
5.62652e-07
-1.22151e-06
4.78964e-07
-1.23526e-06
4.04207e-07
-1.23748e-06
3.3571e-07
-1.22808e-06
2.70876e-07
-1.20658e-06
2.06848e-07
-1.17213e-06
1.40949e-07
-1.12354e-06
7.05043e-08
-1.05918e-06
-7.37822e-09
-9.77188e-07
-9.50756e-08
-8.75344e-07
-1.95401e-07
-7.51514e-07
-3.10309e-07
-6.03648e-07
-4.416e-07
-4.2977e-07
-5.90856e-07
-2.29331e-07
-7.56496e-07
-4.36938e-09
-9.34984e-07
2.39177e-07
-1.11989e-06
4.85216e-07
-1.28973e-06
7.13588e-07
-1.4304e-06
9.07109e-07
-1.52496e-06
1.05816e-06
-1.57055e-06
1.16772e-06
-1.56754e-06
1.23861e-06
-1.51748e-06
1.27367e-06
-1.42093e-06
1.27367e-06
-1.27367e-06
1.23609e-06
-1.06854e-06
1.15869e-06
-8.16573e-07
1.04666e-06
-5.38827e-07
9.09597e-07
-2.51862e-07
7.60516e-07
2.57832e-08
6.13134e-07
2.72981e-07
4.78447e-07
4.72209e-07
3.63572e-07
6.10768e-07
2.67153e-07
6.66622e-07
1.82499e-07
6.31826e-07
1.09048e-07
5.33462e-07
5.12315e-08
3.9989e-07
1.37144e-08
2.48597e-07
8.73275e-08
-2.15061e-07
2.53287e-06
-4.12248e-07
2.2759e-06
-5.86292e-07
1.95602e-06
-7.34908e-07
1.64344e-06
-8.58431e-07
1.37456e-06
-9.58907e-07
1.15554e-06
-1.03893e-06
9.77673e-07
-1.10089e-06
8.29876e-07
-1.14671e-06
7.037e-07
-1.17784e-06
5.93785e-07
-1.19528e-06
4.96407e-07
-1.1996e-06
4.08528e-07
-1.19091e-06
3.27018e-07
-1.1689e-06
2.48867e-07
-1.13277e-06
1.70719e-07
-1.08134e-06
8.95138e-08
-1.013e-06
2.17194e-09
-9.25681e-07
-9.47014e-08
-8.17136e-07
-2.0362e-07
-6.84818e-07
-3.27719e-07
-5.26434e-07
-4.68693e-07
-3.40242e-07
-6.27793e-07
-1.23974e-07
-8.07124e-07
1.19042e-07
-9.99512e-07
3.80783e-07
-1.19673e-06
6.40118e-07
-1.37922e-06
8.7576e-07
-1.52537e-06
1.06864e-06
-1.62328e-06
1.21605e-06
-1.67236e-06
1.32049e-06
-1.675e-06
1.3876e-06
-1.63465e-06
1.42093e-06
-1.55081e-06
1.42093e-06
-1.42093e-06
1.38586e-06
-1.23861e-06
1.31262e-06
-9.95299e-07
1.19951e-06
-7.03465e-07
1.0547e-06
-3.94017e-07
8.93375e-07
-9.05329e-08
7.30933e-07
1.88224e-07
5.79865e-07
4.24049e-07
4.47808e-07
6.04266e-07
3.38104e-07
7.20472e-07
2.47047e-07
7.57679e-07
1.67741e-07
7.11132e-07
9.96575e-08
6.01546e-07
4.6537e-08
4.5301e-07
1.23644e-08
2.8277e-07
9.96918e-08
-2.1449e-07
2.74736e-06
-4.11493e-07
2.4729e-06
-5.85624e-07
2.13015e-06
-7.34021e-07
1.79184e-06
-8.56356e-07
1.4969e-06
-9.54223e-07
1.25341e-06
-1.03006e-06
1.05351e-06
-1.08629e-06
8.86109e-07
-1.12494e-06
7.42347e-07
-1.14752e-06
6.16362e-07
-1.155e-06
5.03888e-07
-1.14783e-06
4.01358e-07
-1.12589e-06
3.05083e-07
-1.0886e-06
2.11576e-07
-1.03475e-06
1.16862e-07
-9.62705e-07
1.7472e-08
-8.70421e-07
-9.01117e-08
-7.55362e-07
-2.0976e-07
-6.15018e-07
-3.43965e-07
-4.46494e-07
-4.96243e-07
-2.47092e-07
-6.68095e-07
-1.62758e-08
-8.58609e-07
2.44498e-07
-1.0679e-06
5.20769e-07
-1.27578e-06
7.90003e-07
-1.46596e-06
1.02505e-06
-1.61427e-06
1.21416e-06
-1.71448e-06
1.35534e-06
-1.76446e-06
1.45506e-06
-1.77208e-06
1.51922e-06
-1.73916e-06
1.55081e-06
-1.66624e-06
1.55081e-06
-1.55081e-06
1.51748e-06
-1.3876e-06
1.44659e-06
-1.16772e-06
1.33506e-06
-8.83762e-07
1.18721e-06
-5.55618e-07
1.01667e-06
-2.23483e-07
8.4113e-07
8.50111e-08
6.75477e-07
3.53878e-07
5.28783e-07
5.70743e-07
4.04745e-07
7.28304e-07
3.03521e-07
8.21696e-07
2.20229e-07
8.40971e-07
1.48447e-07
7.82914e-07
8.755e-08
6.62443e-07
4.05651e-08
4.99995e-07
1.06742e-08
3.12661e-07
1.10366e-07
-2.12234e-07
2.95959e-06
-4.07521e-07
2.66819e-06
-5.80407e-07
2.30304e-06
-7.27452e-07
1.93888e-06
-8.47594e-07
1.61704e-06
-9.41857e-07
1.34767e-06
-1.0124e-06
1.12405e-06
-1.06159e-06
9.35303e-07
-1.09151e-06
7.72262e-07
-1.1037e-06
6.28557e-07
-1.09911e-06
4.99292e-07
-1.07801e-06
3.80256e-07
-1.04e-06
2.67082e-07
-9.84145e-07
1.55716e-07
-9.08707e-07
4.14253e-08
-8.11611e-07
-7.96245e-08
-6.90358e-07
-2.11364e-07
-5.41932e-07
-3.58186e-07
-3.6367e-07
-5.22226e-07
-1.51635e-07
-7.08278e-07
9.47663e-08
-9.14496e-07
3.71077e-07
-1.13492e-06
6.5788e-07
-1.3547e-06
9.30198e-07
-1.5481e-06
1.16172e-06
-1.69748e-06
1.34368e-06
-1.79624e-06
1.47839e-06
-1.84919e-06
1.57419e-06
-1.86027e-06
1.63579e-06
-1.83368e-06
1.66624e-06
-1.76961e-06
1.66624e-06
-1.66624e-06
1.63465e-06
-1.51922e-06
1.56754e-06
-1.32049e-06
1.45799e-06
-1.05816e-06
1.30656e-06
-7.32335e-07
1.12731e-06
-3.76371e-07
9.4013e-07
-3.63015e-08
7.6115e-07
2.63992e-07
6.01197e-07
5.1383e-07
4.64882e-07
7.07058e-07
3.52493e-07
8.40694e-07
2.62024e-07
9.12165e-07
1.8829e-07
9.14705e-07
1.25682e-07
8.45522e-07
7.33964e-08
7.14729e-07
3.36538e-08
5.39738e-07
8.7419e-09
3.37573e-07
1.19108e-07
-2.08124e-07
3.16772e-06
-3.99984e-07
2.86005e-06
-5.70106e-07
2.47316e-06
-7.14488e-07
2.08327e-06
-8.31279e-07
1.73383e-06
-9.20812e-07
1.4372e-06
-9.84823e-07
1.18806e-06
-1.02551e-06
9.75994e-07
-1.04492e-06
7.91672e-07
-1.04461e-06
6.28246e-07
-1.02542e-06
4.80102e-07
-9.87427e-07
3.4226e-07
-9.29882e-07
2.09537e-07
-8.51415e-07
7.72496e-08
-7.49712e-07
-6.02776e-08
-6.22272e-07
-2.07065e-07
-4.66239e-07
-3.67397e-07
-2.77114e-07
-5.47311e-07
-5.29714e-08
-7.46369e-07
2.08544e-07
-9.69794e-07
4.96563e-07
-1.20251e-06
7.91086e-07
-1.42944e-06
1.05994e-06
-1.62355e-06
1.28494e-06
-1.7731e-06
1.45891e-06
-1.87145e-06
1.58859e-06
-1.92592e-06
1.68057e-06
-1.94116e-06
1.74016e-06
-1.91986e-06
1.76961e-06
-1.86313e-06
1.76961e-06
-1.76961e-06
1.73916e-06
-1.63579e-06
1.675e-06
-1.45506e-06
1.57055e-06
-1.21605e-06
1.4195e-06
-9.07109e-07
1.23107e-06
-5.43902e-07
1.02975e-06
-1.75051e-07
8.36781e-07
1.56668e-07
6.63719e-07
4.37054e-07
5.15718e-07
6.61832e-07
3.93351e-07
8.29424e-07
2.94601e-07
9.39443e-07
2.16246e-07
9.9052e-07
1.53272e-07
9.77678e-07
1.00893e-07
8.97901e-07
5.80963e-08
7.57526e-07
2.62448e-08
5.71589e-07
6.69233e-09
3.57125e-07
1.258e-07
-2.01999e-07
3.36972e-06
-3.88544e-07
3.0466e-06
-5.54181e-07
2.6388e-06
-6.94368e-07
2.22345e-06
-8.06425e-07
1.84589e-06
-8.89882e-07
1.52066e-06
-9.45897e-07
1.24408e-06
-9.76352e-07
1.00645e-06
-9.83142e-07
7.98462e-07
-9.6776e-07
6.12864e-07
-9.30923e-07
4.43266e-07
-8.72424e-07
2.83761e-07
-7.91081e-07
1.28194e-07
-6.85217e-07
-2.86145e-08
-5.51692e-07
-1.93802e-07
-3.87121e-07
-3.71636e-07
-1.88324e-07
-5.66194e-07
4.97247e-08
-7.8536e-07
3.24111e-07
-1.02076e-06
6.20954e-07
-1.26664e-06
9.15623e-07
-1.49718e-06
1.17922e-06
-1.69304e-06
1.39544e-06
-1.83977e-06
1.5623e-06
-1.93996e-06
1.68736e-06
-1.99651e-06
1.77669e-06
-2.01525e-06
1.8345e-06
-1.99898e-06
1.86313e-06
-1.94849e-06
1.86313e-06
-1.86313e-06
1.83368e-06
-1.74016e-06
1.77208e-06
-1.57419e-06
1.67236e-06
-1.35534e-06
1.52496e-06
-1.06864e-06
1.33144e-06
-7.13588e-07
1.11551e-06
-3.27974e-07
9.0619e-07
3.42687e-08
7.18495e-07
3.44362e-07
5.58132e-07
5.97417e-07
4.2565e-07
7.94314e-07
3.18901e-07
9.36173e-07
2.34583e-07
1.02376e-06
1.68927e-07
1.05618e-06
1.17294e-07
1.02931e-06
7.55984e-08
9.39596e-07
4.26e-08
7.90524e-07
1.8804e-08
5.95385e-07
4.65611e-09
3.71273e-07
1.30456e-07
-1.93708e-07
3.56342e-06
-3.72872e-07
3.22576e-06
-5.32076e-07
2.798e-06
-6.66266e-07
2.35764e-06
-7.71901e-07
1.95152e-06
-8.47598e-07
1.59636e-06
-8.93779e-07
1.29026e-06
-9.11824e-07
1.02449e-06
-9.03374e-07
7.90012e-07
-8.69776e-07
5.79267e-07
-8.11588e-07
3.85078e-07
-7.28285e-07
2.00459e-07
-6.17941e-07
1.78492e-08
-4.78472e-07
-1.68083e-07
-3.05787e-07
-3.66487e-07
-9.53124e-08
-5.82111e-07
1.54751e-07
-8.16257e-07
4.38505e-07
-1.06911e-06
7.40959e-07
-1.32321e-06
1.03105e-06
-1.55673e-06
1.28675e-06
-1.75289e-06
1.49407e-06
-1.90036e-06
1.65568e-06
-2.00139e-06
1.77692e-06
-2.0612e-06
1.86403e-06
-2.08361e-06
1.92056e-06
-2.07178e-06
1.94849e-06
-2.02691e-06
1.94849e-06
-1.94849e-06
1.91986e-06
-1.8345e-06
1.86027e-06
-1.68057e-06
1.76446e-06
-1.47838e-06
1.62328e-06
-1.21416e-06
1.4304e-06
-8.7576e-07
1.20203e-06
-4.85216e-07
9.7342e-07
-9.9361e-08
7.69014e-07
2.38674e-07
5.9508e-07
5.18296e-07
4.5156e-07
7.40938e-07
3.36173e-07
9.09701e-07
2.45446e-07
1.0269e-06
1.75532e-07
1.09368e-06
1.22537e-07
1.10917e-06
8.22565e-08
1.06959e-06
5.11561e-08
9.70697e-07
2.77504e-08
8.1393e-07
1.17387e-08
6.11397e-07
2.74469e-09
3.80267e-07
1.33201e-07
-1.83101e-07
3.74652e-06
-3.5263e-07
3.39529e-06
-5.03203e-07
2.94858e-06
-6.29259e-07
2.4837e-06
-7.26369e-07
2.04863e-06
-7.92133e-07
1.66212e-06
-8.26059e-07
1.32419e-06
-8.28886e-07
1.02732e-06
-8.01914e-07
7.6304e-07
-7.46246e-07
5.23599e-07
-6.62016e-07
3.00847e-07
-5.48412e-07
8.68557e-08
-4.02462e-07
-1.28101e-07
-2.20767e-07
-3.49779e-07
-4.74378e-10
-5.86779e-07
2.58977e-07
-8.41562e-07
5.50529e-07
-1.10781e-06
8.50731e-07
-1.36932e-06
1.13573e-06
-1.60821e-06
1.38255e-06
-1.80355e-06
1.58312e-06
-1.95345e-06
1.73999e-06
-2.05723e-06
1.8587e-06
-2.1201e-06
1.94402e-06
-2.14652e-06
1.99948e-06
-2.13907e-06
2.02691e-06
-2.09921e-06
2.02691e-06
-2.02691e-06
1.99898e-06
-1.92056e-06
1.94117e-06
-1.77669e-06
1.84919e-06
-1.58859e-06
1.71448e-06
-1.34368e-06
1.52538e-06
-1.02505e-06
1.28973e-06
-6.40118e-07
1.04369e-06
-2.39177e-07
8.20435e-07
1.23898e-07
6.307e-07
4.28409e-07
4.74682e-07
6.74314e-07
3.49471e-07
8.66148e-07
2.51298e-07
1.00787e-06
1.76115e-07
1.10208e-06
1.1997e-07
1.14982e-06
7.90863e-08
1.15006e-06
4.96877e-08
1.09899e-06
2.8639e-08
9.91745e-07
1.42e-08
8.28369e-07
5.35621e-09
6.20241e-07
1.03922e-09
3.84584e-07
1.3424e-07
-1.70015e-07
3.91654e-06
-3.27449e-07
3.55273e-06
-4.66891e-07
3.08802e-06
-5.82257e-07
2.59906e-06
-6.68186e-07
2.13456e-06
-7.21141e-07
1.71508e-06
-7.39585e-07
1.34263e-06
-7.23554e-07
1.01129e-06
-6.73756e-07
7.13242e-07
-5.90979e-07
4.40822e-07
-4.74549e-07
1.84417e-07
-3.23327e-07
-6.43658e-08
-1.34849e-07
-3.1658e-07
9.41527e-08
-5.7878e-07
3.60344e-07
-8.52971e-07
6.52482e-07
-1.1337e-06
9.50494e-07
-1.40582e-06
1.22831e-06
-1.64713e-06
1.46754e-06
-1.84744e-06
1.66341e-06
-1.99941e-06
1.81694e-06
-2.10699e-06
1.93353e-06
-2.17381e-06
2.01761e-06
-2.20418e-06
2.07222e-06
-2.20113e-06
2.09921e-06
-2.16607e-06
2.09921e-06
-2.09921e-06
2.07179e-06
-1.99948e-06
2.01525e-06
-1.86403e-06
1.92592e-06
-1.68736e-06
1.79624e-06
-1.45891e-06
1.61428e-06
-1.16172e-06
1.37923e-06
-7.90003e-07
1.11989e-06
-3.80782e-07
8.76346e-07
4.36972e-09
6.68718e-07
3.31525e-07
4.98607e-07
5.9852e-07
3.6226e-07
8.10662e-07
2.55387e-07
9.73021e-07
1.73697e-07
1.08956e-06
1.13063e-07
1.16272e-06
6.967e-08
1.19321e-06
3.99861e-08
1.17974e-06
2.06334e-08
1.11834e-06
8.75377e-09
1.00363e-06
2.35679e-09
8.34765e-07
-1.62632e-10
6.2276e-07
-4.16096e-10
3.84837e-07
1.33824e-07
-1.54259e-07
4.0708e-06
-2.96885e-07
3.69535e-06
-4.2232e-07
3.21345e-06
-5.23899e-07
2.70064e-06
-5.95245e-07
2.20591e-06
-6.31576e-07
1.75141e-06
-6.30265e-07
1.34132e-06
-5.90373e-07
9.71398e-07
-5.11847e-07
6.34715e-07
-3.95583e-07
3.24559e-07
-2.41382e-07
3.02155e-08
-4.77468e-08
-2.58001e-07
1.84832e-07
-5.49159e-07
4.53506e-07
-8.47455e-07
7.45337e-07
-1.1448e-06
1.03862e-06
-1.42699e-06
1.30992e-06
-1.67712e-06
1.54451e-06
-1.88172e-06
1.73611e-06
-2.03903e-06
1.88738e-06
-2.15068e-06
2.00237e-06
-2.22198e-06
2.08538e-06
-2.25683e-06
2.1394e-06
-2.25819e-06
2.16607e-06
-2.22781e-06
2.16607e-06
-2.16607e-06
2.13908e-06
-2.07222e-06
2.08362e-06
-1.94402e-06
1.99651e-06
-1.77692e-06
1.87146e-06
-1.5623e-06
1.69748e-06
-1.28493e-06
1.46596e-06
-9.30197e-07
1.19673e-06
-5.20769e-07
9.34989e-07
-1.19041e-07
7.10026e-07
2.29332e-07
5.25264e-07
5.16288e-07
3.76925e-07
7.46859e-07
2.6042e-07
9.27166e-07
1.71163e-07
1.06228e-06
1.04838e-07
1.15589e-06
5.75217e-08
1.21003e-06
2.56799e-08
1.22505e-06
6.0682e-09
1.19935e-06
-4.34938e-09
1.12876e-06
-8.19565e-09
1.00747e-06
-7.64454e-09
8.34214e-07
-4.77798e-09
6.19893e-07
-1.61976e-09
3.81679e-07
1.32204e-07
-1.35578e-07
4.20638e-06
-2.60352e-07
3.82012e-06
-3.68414e-07
3.32151e-06
-4.52391e-07
2.78462e-06
-5.04784e-07
2.2583e-06
-5.1952e-07
1.76615e-06
-4.92634e-07
1.31443e-06
-4.2203e-07
9.00794e-07
-3.09079e-07
5.21765e-07
-1.55289e-07
1.70768e-07
3.82871e-08
-1.6336e-07
2.71831e-07
-4.91546e-07
5.39806e-07
-8.17134e-07
8.28551e-07
-1.1362e-06
1.11727e-06
-1.43352e-06
1.38407e-06
-1.69379e-06
1.61396e-06
-1.90701e-06
1.80272e-06
-2.07048e-06
1.95183e-06
-2.18814e-06
2.06563e-06
-2.26448e-06
2.14786e-06
-2.30422e-06
2.20137e-06
-2.31034e-06
2.22781e-06
-2.28463e-06
2.22781e-06
-2.22781e-06
2.20114e-06
-2.13939e-06
2.14653e-06
-2.01761e-06
2.0612e-06
-1.85869e-06
1.93996e-06
-1.65568e-06
1.7731e-06
-1.39544e-06
1.5481e-06
-1.05994e-06
1.27579e-06