/*--------------------------------*- C++ -*----------------------------------*\
| =========                 |                                                 |
| \\      /  F ield         | OpenFOAM: The Open Source CFD Toolbox           |
|  \\    /   O peration     | Version:  2312                                  |
|   \\  /    A nd           | Website:  www.openfoam.com                      |
|    \\/     M anipulation  |                                                 |
\*---------------------------------------------------------------------------*/
FoamFile
{
    version     2.0;
    format      ascii;
    arch        "LSB;label=32;scalar=64";
    class       volSymmTensorField;
    location    "1919";
    object      Rij;
}
// * * * * * * * * * * * * * * * * * * * * * * * * * * * * * * * * * * * * * //

dimensions      [0 2 -2 0 0 0 0];

internalField   nonuniform List<symmTensor> 
2304
(
(9.16913e-06 -2.24448e-11 -7.97081e-08 9.16871e-06 2.18962e-10 9.16815e-06)
(9.3274e-06 -5.92807e-11 -8.17836e-08 9.32696e-06 6.27651e-10 9.3264e-06)
(9.56935e-06 -7.81002e-11 -8.49898e-08 9.56887e-06 9.69866e-10 9.5683e-06)
(9.82015e-06 -7.97383e-11 -8.83551e-08 9.81964e-06 1.24115e-09 9.81907e-06)
(1.00346e-05 -7.08335e-11 -9.12655e-08 1.00341e-05 1.45222e-09 1.00335e-05)
(1.01982e-05 -5.80326e-11 -9.35051e-08 1.01977e-05 1.62103e-09 1.01971e-05)
(1.03131e-05 -4.50644e-11 -9.50874e-08 1.03126e-05 1.76189e-09 1.0312e-05)
(1.03868e-05 -3.31692e-11 -9.61043e-08 1.03862e-05 1.88447e-09 1.03856e-05)
(1.04262e-05 -2.23873e-11 -9.66489e-08 1.04256e-05 1.99413e-09 1.0425e-05)
(1.04371e-05 -1.25219e-11 -9.67968e-08 1.04365e-05 2.09423e-09 1.04359e-05)
(1.04239e-05 -3.5029e-12 -9.66108e-08 1.04233e-05 2.18714e-09 1.04227e-05)
(1.03907e-05 4.56977e-12 -9.61479e-08 1.03901e-05 2.27493e-09 1.03895e-05)
(1.03415e-05 1.15078e-11 -9.54644e-08 1.03409e-05 2.35943e-09 1.03403e-05)
(1.02802e-05 1.71065e-11 -9.46162e-08 1.02796e-05 2.44217e-09 1.0279e-05)
(1.02107e-05 2.11829e-11 -9.36585e-08 1.02102e-05 2.52442e-09 1.02096e-05)
(1.01368e-05 2.35962e-11 -9.26441e-08 1.01362e-05 2.60702e-09 1.01356e-05)
(1.0062e-05 2.42487e-11 -9.16224e-08 1.00615e-05 2.69048e-09 1.00609e-05)
(9.98965e-06 2.31097e-11 -9.06383e-08 9.98911e-06 2.77488e-09 9.98852e-06)
(9.92261e-06 2.02424e-11 -8.97308e-08 9.92208e-06 2.85985e-09 9.92149e-06)
(9.86328e-06 1.58505e-11 -8.89312e-08 9.86276e-06 2.94444e-09 9.86217e-06)
(9.81329e-06 1.03429e-11 -8.82605e-08 9.81278e-06 3.02701e-09 9.81219e-06)
(9.7733e-06 4.3973e-12 -8.77263e-08 9.77279e-06 3.10502e-09 9.77221e-06)
(9.7427e-06 -9.53192e-13 -8.73195e-08 9.74219e-06 3.17482e-09 9.74162e-06)
(9.7193e-06 -4.23757e-12 -8.70095e-08 9.71878e-06 3.23145e-09 9.71823e-06)
(9.69901e-06 -3.48645e-12 -8.67407e-08 9.69849e-06 3.26848e-09 9.69795e-06)
(9.6756e-06 3.79495e-12 -8.6429e-08 9.67507e-06 3.2782e-09 9.67456e-06)
(9.64034e-06 2.05748e-11 -8.59576e-08 9.6398e-06 3.25207e-09 9.63932e-06)
(9.58207e-06 4.9942e-11 -8.51785e-08 9.58152e-06 3.18113e-09 9.58109e-06)
(9.48788e-06 9.46415e-11 -8.39231e-08 9.48732e-06 3.05725e-09 9.48694e-06)
(9.34371e-06 1.5657e-10 -8.20134e-08 9.34314e-06 2.87499e-09 9.34282e-06)
(9.13549e-06 2.36101e-10 -7.92819e-08 9.13492e-06 2.63335e-09 9.13467e-06)
(8.85046e-06 3.31489e-10 -7.55941e-08 8.84989e-06 2.3372e-09 8.84972e-06)
(8.47859e-06 4.38557e-10 -7.08729e-08 8.47803e-06 1.99779e-09 8.47794e-06)
(8.01375e-06 5.50853e-10 -6.51178e-08 8.01322e-06 1.63212e-09 8.0132e-06)
(7.45446e-06 6.60157e-10 -5.84142e-08 7.45398e-06 1.25998e-09 7.45402e-06)
(6.80426e-06 7.55751e-10 -5.09343e-08 6.80383e-06 9.03807e-10 6.80391e-06)
(6.07394e-06 8.24434e-10 -4.29525e-08 6.07359e-06 5.88243e-10 6.07369e-06)
(5.28329e-06 8.53301e-10 -3.48402e-08 5.28302e-06 3.34636e-10 5.28311e-06)
(4.46093e-06 8.33813e-10 -2.70275e-08 4.46074e-06 1.55152e-10 4.4608e-06)
(3.64199e-06 7.65697e-10 -1.99354e-08 3.64187e-06 4.87976e-11 3.64189e-06)
(2.86325e-06 6.58714e-10 -1.38954e-08 2.86319e-06 1.5029e-12 2.86318e-06)
(2.1568e-06 5.30304e-10 -9.08378e-09 2.15677e-06 -9.62268e-12 2.15675e-06)
(1.54433e-06 3.99065e-10 -5.50262e-09 1.54432e-06 -6.65953e-12 1.5443e-06)
(1.03608e-06 2.78849e-10 -3.02121e-09 1.03608e-06 -2.3677e-12 1.03607e-06)
(6.33402e-07 1.77261e-10 -1.44039e-09 6.33401e-07 -3.23643e-13 6.33396e-07)
(3.32881e-07 9.74677e-11 -5.44806e-10 3.32881e-07 1.01442e-13 3.32879e-07)
(1.30519e-07 4.07417e-11 -1.30371e-10 1.30519e-07 4.68854e-14 1.30519e-07)
(2.6025e-08 9.10415e-12 -9.10415e-12 2.6025e-08 3.11514e-15 2.6025e-08)
(7.68629e-06 -3.50327e-10 -3.90095e-07 7.67333e-06 8.94757e-10 7.65872e-06)
(7.81328e-06 -9.28166e-10 -3.99943e-07 7.79978e-06 2.58248e-09 7.78488e-06)
(8.01064e-06 -1.23228e-09 -4.15314e-07 7.99628e-06 4.04004e-09 7.9809e-06)
(8.22006e-06 -1.27624e-09 -4.31695e-07 8.20479e-06 5.25076e-09 8.18888e-06)
(8.40455e-06 -1.16e-09 -4.46144e-07 8.38851e-06 6.24186e-09 8.37208e-06)
(8.5503e-06 -9.83088e-10 -4.57531e-07 8.53365e-06 7.06612e-09 8.51679e-06)
(8.65674e-06 -8.0135e-10 -4.65797e-07 8.63967e-06 7.76808e-09 8.62247e-06)
(8.72799e-06 -6.33541e-10 -4.71278e-07 8.71064e-06 8.38006e-09 8.69321e-06)
(8.76856e-06 -4.80537e-10 -4.74347e-07 8.75105e-06 8.92137e-09 8.73348e-06)
(8.7822e-06 -3.39685e-10 -4.75321e-07 8.76465e-06 9.40486e-09 8.74704e-06)
(8.77218e-06 -2.10252e-10 -4.74473e-07 8.75468e-06 9.83988e-09 8.73709e-06)
(8.74155e-06 -9.40578e-11 -4.72065e-07 8.72418e-06 1.02346e-08 8.70668e-06)
(8.69345e-06 5.77496e-12 -4.68363e-07 8.67627e-06 1.0596e-08 8.65891e-06)
(8.63105e-06 8.59269e-11 -4.63635e-07 8.61413e-06 1.09304e-08 8.59694e-06)
(8.55761e-06 1.43487e-10 -4.5815e-07 8.54096e-06 1.12427e-08 8.52398e-06)
(8.47629e-06 1.76273e-10 -4.52172e-07 8.45995e-06 1.15365e-08 8.4432e-06)
(8.39022e-06 1.82868e-10 -4.4595e-07 8.37419e-06 1.1814e-08 8.35767e-06)
(8.30243e-06 1.62971e-10 -4.39719e-07 8.2867e-06 1.20762e-08 8.27042e-06)
(8.21578e-06 1.17796e-10 -4.33693e-07 8.20033e-06 1.23225e-08 8.1843e-06)
(8.13295e-06 5.0715e-11 -4.28061e-07 8.11776e-06 1.25508e-08 8.10195e-06)
(8.05627e-06 -3.18459e-11 -4.22973e-07 8.0413e-06 1.27569e-08 8.02572e-06)
(7.98758e-06 -1.1959e-10 -4.18534e-07 7.97277e-06 1.29346e-08 7.95742e-06)
(7.928e-06 -1.97211e-10 -4.14782e-07 7.9133e-06 1.30742e-08 7.89818e-06)
(7.87771e-06 -2.43315e-10 -4.11676e-07 7.86308e-06 1.31629e-08 7.84822e-06)
(7.8359e-06 -2.29626e-10 -4.09083e-07 7.82127e-06 1.31844e-08 7.80672e-06)
(7.80076e-06 -1.20388e-10 -4.06777e-07 7.78608e-06 1.3119e-08 7.77191e-06)
(7.76791e-06 1.27728e-10 -4.04323e-07 7.75315e-06 1.29425e-08 7.73946e-06)
(7.72803e-06 5.6073e-10 -4.01024e-07 7.7132e-06 1.26255e-08 7.70012e-06)
(7.67022e-06 1.22102e-09 -3.96066e-07 7.65537e-06 1.21406e-08 7.64307e-06)
(7.58187e-06 2.14068e-09 -3.88534e-07 7.56709e-06 1.14672e-08 7.55574e-06)
(7.44905e-06 3.33113e-09 -3.77482e-07 7.43449e-06 1.05965e-08 7.42429e-06)
(7.25761e-06 4.77283e-09 -3.6205e-07 7.24349e-06 9.53737e-09 7.23458e-06)
(6.99458e-06 6.40823e-09 -3.41589e-07 6.98116e-06 8.31953e-09 6.97367e-06)
(6.64961e-06 8.14119e-09 -3.15801e-07 6.63718e-06 6.99389e-09 6.63116e-06)
(6.21605e-06 9.84236e-09 -2.8482e-07 6.20488e-06 5.6197e-09 6.20031e-06)
(5.69103e-06 1.13346e-08 -2.49226e-07 5.68138e-06 4.26527e-09 5.67814e-06)
(5.07786e-06 1.23892e-08 -2.10173e-07 5.06996e-06 3.01294e-09 5.06778e-06)
(4.38883e-06 1.27703e-08 -1.6945e-07 4.38276e-06 1.94384e-09 4.38133e-06)
(3.64736e-06 1.23087e-08 -1.29377e-07 3.64308e-06 1.11978e-09 3.64208e-06)
(2.88859e-06 1.09862e-08 -9.25095e-08 2.88588e-06 5.65654e-10 2.8851e-06)
(2.15707e-06 8.99056e-09 -6.11519e-08 2.15556e-06 2.5776e-10 2.15492e-06)
(1.50012e-06 6.68729e-09 -3.68089e-08 1.49939e-06 1.20387e-10 1.49891e-06)
(9.56747e-07 4.48161e-09 -1.97801e-08 9.56442e-07 6.3741e-11 9.56163e-07)
(5.4774e-07 2.66868e-09 -9.21199e-09 5.47627e-07 3.38333e-11 5.47506e-07)
(2.71774e-07 1.36927e-09 -3.52422e-09 2.71738e-07 1.47671e-11 2.71702e-07)
(1.10123e-07 5.59745e-10 -9.8396e-10 1.10113e-07 4.35805e-12 1.10108e-07)
(4.27062e-08 1.72055e-10 -1.72055e-10 4.27048e-08 6.22654e-13 4.27048e-08)
(1.30519e-07 1.30371e-10 -4.07416e-11 1.30519e-07 4.68843e-14 1.30519e-07)
(4.79328e-05 -1.11326e-08 -6.95241e-06 4.72343e-05 1.2034e-08 4.6478e-05)
(4.87137e-05 -2.96008e-08 -7.11816e-06 4.79902e-05 3.52549e-08 4.72147e-05)
(4.9932e-05 -3.96334e-08 -7.37734e-06 4.91691e-05 5.65777e-08 4.83633e-05)
(5.12317e-05 -4.1678e-08 -7.65439e-06 5.04269e-05 7.57379e-08 4.95877e-05)
(5.23847e-05 -3.87957e-08 -7.90003e-06 5.15429e-05 9.25804e-08 5.06729e-05)
(5.33025e-05 -3.40071e-08 -8.09489e-06 5.24317e-05 1.07259e-07 5.15366e-05)
(5.39782e-05 -2.90008e-08 -8.23744e-06 5.30864e-05 1.20033e-07 5.21725e-05)
(5.44344e-05 -2.43444e-08 -8.3328e-06 5.35288e-05 1.31196e-07 5.2602e-05)
(5.46971e-05 -2.00678e-08 -8.38691e-06 5.37837e-05 1.40982e-07 5.28497e-05)
(5.47885e-05 -1.60957e-08 -8.40491e-06 5.38726e-05 1.49576e-07 5.29361e-05)
(5.4728e-05 -1.24112e-08 -8.3913e-06 5.38142e-05 1.57117e-07 5.28796e-05)
(5.45344e-05 -9.07492e-09 -8.35042e-06 5.36267e-05 1.6372e-07 5.26976e-05)
(5.4227e-05 -6.18667e-09 -8.2867e-06 5.33285e-05 1.69486e-07 5.24079e-05)
(5.38254e-05 -3.8521e-09 -8.20464e-06 5.29388e-05 1.74502e-07 5.20289e-05)
(5.33498e-05 -2.16403e-09 -8.10877e-06 5.24768e-05 1.78842e-07 5.15793e-05)
(5.28198e-05 -1.1924e-09 -8.0035e-06 5.19616e-05 1.82563e-07 5.10778e-05)
(5.22552e-05 -9.82914e-10 -7.89306e-06 5.14122e-05 1.85711e-07 5.05427e-05)
(5.16748e-05 -1.54602e-09 -7.78144e-06 5.0847e-05 1.88319e-07 4.99918e-05)
(5.10971e-05 -2.84475e-09 -7.67232e-06 5.02838e-05 1.90406e-07 4.94427e-05)
(5.05393e-05 -4.77502e-09 -7.56899e-06 4.97393e-05 1.91981e-07 4.89119e-05)
(5.00171e-05 -7.13872e-09 -7.47416e-06 4.92286e-05 1.93037e-07 4.84142e-05)
(4.9543e-05 -9.61952e-09 -7.38978e-06 4.87643e-05 1.93554e-07 4.79623e-05)
(4.9126e-05 -1.17494e-08 -7.31678e-06 4.83549e-05 1.93493e-07 4.75648e-05)
(4.87695e-05 -1.28785e-08 -7.25478e-06 4.80038e-05 1.92795e-07 4.72257e-05)
(4.8471e-05 -1.21558e-08 -7.20199e-06 4.77089e-05 1.91386e-07 4.69435e-05)
(4.82237e-05 -8.50364e-09 -7.1553e-06 4.74637e-05 1.89179e-07 4.67125e-05)
(4.80124e-05 -6.1452e-10 -7.11147e-06 4.72533e-05 1.86123e-07 4.65185e-05)
(4.77724e-05 1.29255e-08 -7.05618e-06 4.70151e-05 1.81931e-07 4.63011e-05)
(4.74362e-05 3.34252e-08 -6.97544e-06 4.66836e-05 1.76387e-07 4.59963e-05)
(4.69243e-05 6.19088e-08 -6.85343e-06 4.61817e-05 1.69305e-07 4.55285e-05)
(4.61475e-05 9.88061e-08 -6.67336e-06 4.54227e-05 1.60545e-07 4.48123e-05)
(4.50136e-05 1.43631e-07 -6.41924e-06 4.43168e-05 1.5005e-07 4.3758e-05)
(4.34361e-05 1.94739e-07 -6.07819e-06 4.27793e-05 1.37895e-07 4.22807e-05)
(4.13439e-05 2.49265e-07 -5.64284e-06 4.07398e-05 1.24321e-07 4.03086e-05)
(3.86886e-05 3.03285e-07 -5.11306e-06 3.81493e-05 1.0943e-07 3.77906e-05)
(3.54447e-05 3.51309e-07 -4.49618e-06 3.49808e-05 9.32662e-08 3.46954e-05)
(3.16241e-05 3.86063e-07 -3.80963e-06 3.12435e-05 7.61628e-08 3.10275e-05)
(2.72958e-05 3.99748e-07 -3.08292e-06 2.70014e-05 5.88055e-08 2.68462e-05)
(2.26022e-05 3.86347e-07 -2.35703e-06 2.23908e-05 4.23008e-08 2.22849e-05)
(1.77677e-05 3.44473e-07 -1.68002e-06 1.76294e-05 2.8068e-08 1.75603e-05)
(1.3088e-05 2.79622e-07 -1.09852e-06 1.30071e-05 1.73579e-08 1.29642e-05)
(8.88893e-06 2.0385e-07 -6.46052e-07 8.84725e-06 1.02005e-08 8.8231e-06)
(5.44772e-06 1.31255e-07 -3.32477e-07 5.42894e-06 5.55751e-09 5.41773e-06)
(2.91521e-06 7.22276e-08 -1.42631e-07 2.90798e-06 2.56136e-09 2.90423e-06)
(1.283e-06 3.11091e-08 -4.56629e-08 1.28087e-06 8.37618e-10 1.28019e-06)
(4.12403e-07 8.06767e-09 -8.06767e-09 4.12077e-07 1.24439e-10 4.12077e-07)
(1.10123e-07 9.83959e-10 -5.59744e-10 1.10108e-07 4.35804e-12 1.10113e-07)
(3.32881e-07 5.44806e-10 -9.74676e-11 3.32879e-07 1.01435e-13 3.32881e-07)
(0.000180389 -1.11411e-07 -4.72501e-05 0.000170662 4.66275e-08 0.000160194)
(0.000183214 -2.96518e-07 -4.82288e-05 0.00017319 1.43675e-07 0.00016247)
(0.000187621 -3.98311e-07 -4.97565e-05 0.000177134 2.49044e-07 0.000166015)
(0.000192326 -4.21921e-07 -5.1387e-05 0.000181343 3.60479e-07 0.000169791)
(0.000196506 -3.97665e-07 -5.28327e-05 0.000185085 4.70376e-07 0.00017314)
(0.000199839 -3.54835e-07 -5.39814e-05 0.000188072 5.72385e-07 0.000175809)
(0.000202299 -3.09601e-07 -5.48244e-05 0.000190279 6.63536e-07 0.00017778)
(0.000203963 -2.67305e-07 -5.53913e-05 0.000191775 7.43594e-07 0.000179117)
(0.000204926 -2.28187e-07 -5.57162e-05 0.000192642 8.13436e-07 0.000179892)
(0.000205265 -1.91502e-07 -5.58287e-05 0.000192949 8.74081e-07 0.000180169)
(0.000205053 -1.57088e-07 -5.57548e-05 0.000192758 9.26318e-07 0.000180002)
(0.000204357 -1.25526e-07 -5.55194e-05 0.00019213 9.70713e-07 0.000179442)
(0.000203245 -9.77861e-08 -5.51478e-05 0.000191126 1.00769e-06 0.000178544)
(0.000201789 -7.49024e-08 -5.46655e-05 0.000189808 1.0376e-06 0.000177362)
(0.000200062 -5.77918e-08 -5.40986e-05 0.000188241 1.06077e-06 0.000175953)
(0.000198134 -4.71544e-08 -5.3472e-05 0.000186487 1.07751e-06 0.000174373)
(0.000196074 -4.34531e-08 -5.28102e-05 0.00018461 1.08813e-06 0.000172677)
(0.000193953 -4.68006e-08 -5.21363e-05 0.000182671 1.09294e-06 0.000170922)
(0.000191835 -5.68359e-08 -5.14718e-05 0.000180728 1.09234e-06 0.000169162)
(0.000189782 -7.25259e-08 -5.08361e-05 0.000178838 1.08676e-06 0.000167449)
(0.000187851 -9.19004e-08 -5.02457e-05 0.000177052 1.07681e-06 0.000165831)
(0.000186085 -1.11816e-07 -4.97125e-05 0.000175412 1.06323e-06 0.000164349)
(0.000184517 -1.27636e-07 -4.92429e-05 0.000173946 1.047e-06 0.000163035)
(0.000183157 -1.32957e-07 -4.88357e-05 0.000172667 1.02934e-06 0.000161905)
(0.000181996 -1.19445e-07 -4.84816e-05 0.000171568 1.01178e-06 0.000160957)
(0.000181009 -7.65241e-08 -4.81664e-05 0.00017063 9.96186e-07 0.000160181)
(0.000180127 8.43175e-09 -4.78691e-05 0.000169785 9.84718e-07 0.000159517)
(0.000179124 1.49062e-07 -4.75067e-05 0.000168834 9.78526e-07 0.00015879)
(0.00017776 3.58282e-07 -4.69971e-05 0.000167561 9.78819e-07 0.000157807)
(0.000175753 6.46503e-07 -4.62459e-05 0.00016571 9.86131e-07 0.000156331)
(0.000172783 1.01893e-06 -4.51506e-05 0.000162991 9.99787e-07 0.000154094)
(0.000168523 1.47259e-06 -4.36091e-05 0.000159102 1.01753e-06 0.000150806)
(0.000162658 1.99386e-06 -4.15319e-05 0.000153752 1.03548e-06 0.000146181)
(0.000154927 2.5572e-06 -3.88558e-05 0.000146688 1.04871e-06 0.00013996)
(0.000145142 3.12611e-06 -3.55549e-05 0.000137717 1.04846e-06 0.000131934)
(0.000133197 3.64784e-06 -3.16457e-05 0.000126717 1.02273e-06 0.000121945)
(0.00011911 4.04956e-06 -2.72025e-05 0.000113676 9.6e-07 0.000109931)
(0.000103085 4.24752e-06 -2.2377e-05 9.87503e-05 8.53105e-07 9.59832e-05)
(8.55868e-05 4.16729e-06 -1.74079e-05 8.23397e-05 7.0483e-07 8.04382e-05)
(6.73905e-05 3.77327e-06 -1.26117e-05 6.51473e-05 5.32172e-07 6.39451e-05)
(4.95839e-05 3.09945e-06 -8.34119e-06 4.81853e-05 3.64456e-07 4.74961e-05)
(3.34524e-05 2.26242e-06 -4.90532e-06 3.26821e-05 2.24384e-07 3.23408e-05)
(2.01741e-05 1.42358e-06 -2.463e-06 1.98109e-05 1.1846e-07 1.96814e-05)
(1.04648e-05 7.24391e-07 -9.75596e-07 1.03299e-05 4.72667e-08 1.03019e-05)
(4.36252e-06 2.55317e-07 -2.55317e-07 4.3313e-06 1.07775e-08 4.3313e-06)
(1.283e-06 4.56629e-08 -3.11091e-08 1.28019e-06 8.37616e-10 1.28087e-06)
(2.71774e-07 3.52422e-09 -1.36927e-09 2.71702e-07 1.4767e-11 2.71738e-07)
(6.33402e-07 1.44039e-09 -1.77261e-10 6.33396e-07 -3.23668e-13 6.33401e-07)
(0.000448477 -4.82136e-07 -0.000152481 0.00039706 4.38859e-09 0.000342509)
(0.000454568 -1.28045e-06 -0.000154899 0.000401909 6.92846e-08 0.000346311)
(0.000464074 -1.71507e-06 -0.000158671 0.000409473 2.5587e-07 0.000352233)
(0.000474233 -1.81304e-06 -0.000162695 0.00041756 5.51232e-07 0.000358543)
(0.000483282 -1.70817e-06 -0.00016627 0.000424776 9.00031e-07 0.000364155)
(0.000490528 -1.52578e-06 -0.000169124 0.000430568 1.24969e-06 0.000368654)
(0.000495901 -1.3338e-06 -0.000171231 0.000434875 1.57117e-06 0.000372)
(0.000499558 -1.15407e-06 -0.000172661 0.000437813 1.85534e-06 0.000374289)
(0.000501693 -9.87226e-07 -0.000173493 0.000439527 2.1027e-06 0.000375633)
(0.000502474 -8.2984e-07 -0.000173798 0.000440149 2.3161e-06 0.000376128)
(0.000502052 -6.8102e-07 -0.000173638 0.000439792 2.49768e-06 0.000375858)
(0.000500571 -5.43013e-07 -0.000173073 0.00043857 2.64848e-06 0.000374906)
(0.000498178 -4.19738e-07 -0.000172162 0.000436597 2.76887e-06 0.000373356)
(0.000495023 -3.15432e-07 -0.000170966 0.00043399 2.85901e-06 0.000371297)
(0.000491257 -2.3388e-07 -0.000169544 0.000430868 2.91921e-06 0.000368817)
(0.000487031 -1.77966e-07 -0.000167957 0.00042735 2.95001e-06 0.000366007)
(0.000482491 -1.49532e-07 -0.000166262 0.000423553 2.9523e-06 0.00036296)
(0.000477783 -1.48857e-07 -0.000164515 0.000419592 2.92754e-06 0.000359769)
(0.000473043 -1.74084e-07 -0.000162769 0.00041558 2.87791e-06 0.000356526)
(0.000468405 -2.2034e-07 -0.000161072 0.000411626 2.80671e-06 0.000353325)
(0.000463986 -2.78584e-07 -0.000159465 0.000407827 2.71864e-06 0.000350255)
(0.000459882 -3.34593e-07 -0.000157981 0.000404268 2.62019e-06 0.000347393)
(0.00045616 -3.67621e-07 -0.000156639 0.000401006 2.52007e-06 0.000344803)
(0.000452843 -3.49245e-07 -0.000155439 0.000398067 2.42948e-06 0.000342526)
(0.000449905 -2.42596e-07 -0.000154364 0.000395438 2.3624e-06 0.000340573)
(0.000447285 -2.03077e-09 -0.000153383 0.000393069 2.33546e-06 0.000338921)
(0.000444791 4.25248e-07 -0.000152428 0.000390794 2.36671e-06 0.000337438)
(0.000441977 1.09647e-06 -0.00015131 0.000388265 2.47326e-06 0.000335875)
(0.000438337 2.06757e-06 -0.000149825 0.000385073 2.67067e-06 0.000333915)
(0.00043327 3.38515e-06 -0.000147736 0.000380727 2.96915e-06 0.000331164)
(0.0004261 5.07697e-06 -0.000144773 0.000374671 3.36951e-06 0.000327162)
(0.000416108 7.14087e-06 -0.000140651 0.000366303 3.85935e-06 0.000321398)
(0.00040259 9.53457e-06 -0.000135097 0.000355019 4.41039e-06 0.000313328)
(0.000384905 1.21677e-05 -0.000127868 0.000340238 4.98011e-06 0.000302405)
(0.000362528 1.4895e-05 -0.000118784 0.000321438 5.50553e-06 0.000288118)
(0.0003351 1.74964e-05 -0.000107762 0.000298224 5.90087e-06 0.000269961)
(0.000302455 1.96595e-05 -9.48411e-05 0.000270348 6.05827e-06 0.000247501)
(0.000264733 2.09911e-05 -8.02404e-05 0.000237828 5.87287e-06 0.000220485)
(0.000222588 2.10764e-05 -6.44426e-05 0.000201149 5.28154e-06 0.000189037)
(0.000177434 1.95936e-05 -4.82548e-05 0.000161508 4.31016e-06 0.000153929)
(0.000131677 1.64759e-05 -3.28132e-05 0.000120983 3.12148e-06 0.000116891)
(8.87943e-05 1.21116e-05 -1.94783e-05 8.25796e-05 1.93381e-06 8.08377e-05)
(5.27036e-05 7.37093e-06 -9.46812e-06 4.98019e-05 9.40191e-07 4.93526e-05)
(2.63905e-05 3.36601e-06 -3.36601e-06 2.54515e-05 3.00434e-07 2.54515e-05)
(1.04648e-05 9.75595e-07 -7.2439e-07 1.03019e-05 4.72667e-08 1.03299e-05)
(2.91521e-06 1.42631e-07 -7.22275e-08 2.90422e-06 2.56136e-09 2.90798e-06)
(5.4774e-07 9.21198e-09 -2.66868e-09 5.47506e-07 3.38331e-11 5.47627e-07)
(1.03608e-06 3.02121e-09 -2.78848e-10 1.03607e-06 -2.36777e-12 1.03608e-06)
(0.000803029 -1.19453e-06 -0.000295504 0.00066867 -3.07706e-07 0.000528874)
(0.000811474 -3.15823e-06 -0.000298811 0.000674735 -7.14779e-07 0.000533083)
(0.000824695 -4.19606e-06 -0.000303993 0.000684235 -6.72179e-07 0.00053964)
(0.000838911 -4.38685e-06 -0.000309567 0.000694467 -2.21669e-07 0.000546658)
(0.000851695 -4.07471e-06 -0.000314578 0.000703692 4.57351e-07 0.000552955)
(0.000862046 -3.57425e-06 -0.000318631 0.000711188 1.19282e-06 0.000558064)
(0.000869811 -3.05418e-06 -0.000321666 0.000716825 1.88686e-06 0.000561913)
(0.000875166 -2.56816e-06 -0.000323757 0.00072071 2.50395e-06 0.000564574)
(0.000878354 -2.11743e-06 -0.000325005 0.000722999 3.04013e-06 0.000566144)
(0.0008796 -1.69308e-06 -0.0003255 0.00072384 3.49992e-06 0.000566712)
(0.000879112 -1.29219e-06 -0.000325326 0.000723373 3.88685e-06 0.00056636)
(0.000877087 -9.19464e-07 -0.000324563 0.000721734 4.20153e-06 0.00056517)
(0.000873729 -5.83675e-07 -0.000323292 0.000719065 4.44294e-06 0.000563229)
(0.00086924 -2.94413e-07 -0.000321593 0.000715509 4.60974e-06 0.000560629)
(0.000863827 -6.01203e-08 -0.000319546 0.000711211 4.70124e-06 0.000557465)
(0.000857692 1.13123e-07 -0.000317232 0.000706317 4.71786e-06 0.000553837)
(0.000851032 2.22102e-07 -0.000314726 0.000700969 4.66156e-06 0.000549845)
(0.000844041 2.67895e-07 -0.000312103 0.000695312 4.53635e-06 0.000545598)
(0.000836908 2.57391e-07 -0.000309433 0.000689487 4.34919e-06 0.000541206)
(0.000829809 2.05538e-07 -0.000306782 0.000683629 4.11098e-06 0.000536783)
(0.000822908 1.38191e-07 -0.000304209 0.000677866 3.83769e-06 0.000532442)
(0.000816336 9.45615e-08 -0.00030176 0.000672305 3.55173e-06 0.000528291)
(0.000810187 1.3042e-07 -0.000299464 0.000667025 3.28301e-06 0.000524421)
(0.000804494 3.20871e-07 -0.000297326 0.000662062 3.07005e-06 0.0005209)
(0.000799228 7.61733e-07 -0.000295329 0.000657401 2.96062e-06 0.000517759)
(0.000794298 1.5671e-06 -0.000293435 0.000652956 3.00989e-06 0.000514945)
(0.000789423 2.86541e-06 -0.000291531 0.0006485 3.27744e-06 0.000512318)
(0.000784022 4.79583e-06 -0.000289373 0.000643623 3.82382e-06 0.000509647)
(0.000777414 7.49669e-06 -0.00028668 0.000637813 4.70406e-06 0.000506601)
(0.000768781 1.10859e-05 -0.000283106 0.000630448 5.95802e-06 0.000502762)
(0.000757182 1.56406e-05 -0.000278251 0.000620803 7.5996e-06 0.000497628)
(0.00074159 2.11724e-05 -0.000271667 0.000608064 9.60641e-06 0.000490615)
(0.000720936 2.76037e-05 -0.000262881 0.000591359 1.19146e-05 0.000481059)
(0.00069415 3.47541e-05 -0.000251421 0.000569769 1.44322e-05 0.000468199)
(0.000660155 4.22664e-05 -0.00023683 0.000542334 1.6973e-05 0.000451166)
(0.000618106 4.95955e-05 -0.000218776 0.000508228 1.92504e-05 0.000429123)
(0.000567182 5.59916e-05 -0.00019702 0.000466662 2.09169e-05 0.000401112)
(0.000506656 6.04521e-05 -0.000171492 0.000417066 2.15413e-05 0.000366113)
(0.000436253 6.17897e-05 -0.000142463 0.000359429 2.06706e-05 0.000323314)
(0.000356728 5.88335e-05 -0.000110764 0.000294861 1.79747e-05 0.000272539)
(0.000270728 5.07327e-05 -7.80356e-05 0.000226023 1.35941e-05 0.000214981)
(0.00018446 3.7759e-05 -4.71756e-05 0.000157616 8.29645e-06 0.000154188)
(0.000108376 2.24284e-05 -2.24284e-05 9.64537e-05 3.60974e-06 9.64537e-05)
(5.27035e-05 9.46812e-06 -7.37092e-06 4.93525e-05 9.4019e-07 4.98019e-05)
(2.01741e-05 2.463e-06 -1.42358e-06 1.96814e-05 1.1846e-07 1.98109e-05)
(5.44772e-06 3.32477e-07 -1.31255e-07 5.41773e-06 5.55749e-09 5.42893e-06)
(9.56746e-07 1.97801e-08 -4.48161e-09 9.56162e-07 6.37404e-11 9.56441e-07)
(1.54433e-06 5.50262e-09 -3.99065e-10 1.5443e-06 -6.65968e-12 1.54432e-06)
(0.00113236 -2.13978e-06 -0.00042413 0.000916506 -8.58698e-07 0.000692049)
(0.00113997 -5.62398e-06 -0.000427012 0.000922363 -2.14075e-06 0.000696953)
(0.00115191 -7.38674e-06 -0.000431567 0.00093163 -2.48834e-06 0.000704673)
(0.00116487 -7.58754e-06 -0.000436545 0.000941762 -1.99726e-06 0.000713073)
(0.0011767 -6.86934e-06 -0.000441108 0.000951071 -1.03092e-06 0.000720765)
(0.00118645 -5.81256e-06 -0.000444877 0.000958781 7.62283e-08 0.000727128)
(0.00119389 -4.72939e-06 -0.000447759 0.000964678 1.13588e-06 0.000732006)
(0.0011991 -3.72145e-06 -0.00044978 0.00096879 2.07743e-06 0.000735438)
(0.00120223 -2.79353e-06 -0.000450998 0.000971225 2.88952e-06 0.000737525)
(0.00120343 -1.92981e-06 -0.000451477 0.000972103 3.57756e-06 0.000738375)
(0.00120285 -1.12367e-06 -0.000451278 0.000971549 4.1462e-06 0.000738095)
(0.00120065 -3.81196e-07 -0.000450464 0.000969692 4.59549e-06 0.000736796)
(0.001197 2.84574e-07 -0.0004491 0.000966666 4.92275e-06 0.000734588)
(0.00119206 8.59381e-07 -0.000447252 0.00096261 5.12495e-06 0.000731587)
(0.00118602 1.33136e-06 -0.00044499 0.000957662 5.20047e-06 0.000727907)
(0.00117905 1.69342e-06 -0.000442383 0.00095196 5.15011e-06 0.000723662)
(0.00117133 1.94452e-06 -0.000439498 0.000945643 4.97809e-06 0.000718966)
(0.00116306 2.09239e-06 -0.000436407 0.000938848 4.69312e-06 0.000713932)
(0.00115441 2.15634e-06 -0.000433179 0.000931713 4.31005e-06 0.000708671)
(0.0011456 2.17121e-06 -0.000429886 0.000924373 3.85173e-06 0.000703295)
(0.0011368 2.19219e-06 -0.000426595 0.000916957 3.35097e-06 0.000697906)
(0.00112819 2.2988e-06 -0.000423369 0.000909574 2.85272e-06 0.000692596)
(0.00111994 2.59995e-06 -0.00042026 0.000902311 2.41574e-06 0.000687433)
(0.00111215 3.2376e-06 -0.000417299 0.00089521 2.11415e-06 0.000682457)
(0.00110485 4.38668e-06 -0.000414495 0.00088826 2.03763e-06 0.000677667)
(0.00109799 6.25363e-06 -0.000411812 0.000881368 2.29084e-06 0.000673012)
(0.00109134 9.06774e-06 -0.000409144 0.000874301 2.99031e-06 0.000668325)
(0.00108449 1.30748e-05 -0.000406299 0.000866667 4.25942e-06 0.00066332)
(0.00107686 1.85224e-05 -0.000403006 0.00085795 6.22187e-06 0.000657643)
(0.00106772 2.5627e-05 -0.000398907 0.000847508 8.99254e-06 0.000650878)
(0.00105614 3.45388e-05 -0.000393546 0.000834558 1.26642e-05 0.000642553)
(0.00104099 4.5294e-05 -0.00038636 0.000818178 1.72909e-05 0.000632162)
(0.00102093 5.7753e-05 -0.000376682 0.000797311 2.28628e-05 0.000619176)
(0.000994288 7.15605e-05 -0.000363745 0.000770807 2.92656e-05 0.000603042)
(0.000956767 8.58461e-05 -0.000345864 0.000737456 3.57242e-05 0.000585057)
(0.000908547 9.97598e-05 -0.000323066 0.000695993 4.18226e-05 0.000562728)
(0.000848786 0.00011205 -0.000295142 0.000645051 4.69189e-05 0.000533903)
(0.000775148 0.000120937 -0.000261592 0.000583451 4.99282e-05 0.000497012)
(0.000685133 0.000124233 -0.000222194 0.000510543 4.95393e-05 0.000450422)
(0.000576959 0.000119614 -0.000177339 0.000427183 4.44684e-05 0.000392646)
(0.000450694 0.000104923 -0.000128475 0.000336196 3.43312e-05 0.000323042)
(0.000313081 7.93374e-05 -7.93373e-05 0.000242672 2.06351e-05 0.000242672)
(0.00018446 4.71756e-05 -3.7759e-05 0.000154188 8.29645e-06 0.000157616)
(8.87943e-05 1.94783e-05 -1.21116e-05 8.08376e-05 1.9338e-06 8.25795e-05)
(3.34523e-05 4.90531e-06 -2.26242e-06 3.23408e-05 2.24384e-07 3.26821e-05)
(8.88893e-06 6.46052e-07 -2.0385e-07 8.8231e-06 1.02005e-08 8.84725e-06)
(1.50012e-06 3.68089e-08 -6.68728e-09 1.49891e-06 1.20386e-10 1.49939e-06)
(2.1568e-06 9.08378e-09 -5.30303e-10 2.15675e-06 -9.62297e-12 2.15677e-06)
(0.00137014 -3.1634e-06 -0.000515476 0.00111737 -1.40007e-06 0.000847571)
(0.00137682 -8.29817e-06 -0.000517969 0.00112232 -3.58668e-06 0.000851858)
(0.00138745 -1.08473e-05 -0.000521992 0.00113027 -4.44286e-06 0.000858701)
(0.0013992 -1.10353e-05 -0.000526502 0.00113919 -4.08243e-06 0.000866303)
(0.00141015 -9.81548e-06 -0.000530752 0.0011476 -3.00283e-06 0.000873452)
(0.00141938 -8.06131e-06 -0.000534358 0.00115475 -1.67262e-06 0.000879535)
(0.00142658 -6.25668e-06 -0.00053718 0.00116033 -3.66645e-07 0.000884321)
(0.00143172 -4.57062e-06 -0.000539197 0.00116426 8.02325e-07 0.000887768)
(0.00143484 -3.02194e-06 -0.000540437 0.00116659 1.80704e-06 0.000889918)
(0.00143605 -1.59224e-06 -0.00054094 0.00116737 2.64778e-06 0.000890841)
(0.00143546 -2.72453e-07 -0.000540755 0.00116671 3.32707e-06 0.000890625)
(0.0014332 9.30212e-07 -0.000539935 0.00116471 3.8433e-06 0.000889359)
(0.00142941 1.99964e-06 -0.000538536 0.00116148 4.19241e-06 0.000887143)
(0.00142424 2.919e-06 -0.000536618 0.00115714 4.3708e-06 0.000884075)
(0.00141783 3.67631e-06 -0.000534238 0.0011518 4.37759e-06 0.000880255)
(0.00141036 4.26828e-06 -0.000531459 0.00114558 4.21588e-06 0.000875781)
(0.00140196 4.7026e-06 -0.00052834 0.00113859 3.89446e-06 0.00087075)
(0.00139283 5.00205e-06 -0.000524944 0.00113095 3.42891e-06 0.000865261)
(0.00138313 5.20856e-06 -0.000521335 0.00112277 2.84407e-06 0.000859411)
(0.00137304 5.38859e-06 -0.000517577 0.00111418 2.17646e-06 0.000853298)
(0.00136277 5.6395e-06 -0.000513736 0.00110528 1.4765e-06 0.000847019)
(0.00135249 6.09431e-06 -0.000509875 0.00109617 8.11786e-07 0.000840658)
(0.00134238 6.92763e-06 -0.000506047 0.00108693 2.68536e-07 0.000834286)
(0.00133259 8.35622e-06 -0.000502292 0.00107761 -4.72479e-08 0.000827949)
(0.00132319 1.06396e-05 -0.000498625 0.0010682 -8.07219e-09 0.000821666)
(0.00131419 1.40791e-05 -0.000495018 0.00105862 5.32833e-07 0.000815403)
(0.00130544 1.9001e-05 -0.00049137 0.00104867 1.73836e-06 0.000809034)
(0.00129666 2.57426e-05 -0.000487499 0.00103799 3.78065e-06 0.000802355)
(0.00128741 3.46282e-05 -0.000483127 0.00102612 6.83227e-06 0.000795114)
(0.00127704 4.59187e-05 -0.000477862 0.00101246 1.10577e-05 0.000787024)
(0.00126469 5.97556e-05 -0.000471178 0.000996258 1.65921e-05 0.00077778)
(0.00124916 7.60862e-05 -0.000462396 0.000976614 2.35065e-05 0.000767066)
(0.00122885 9.45684e-05 -0.000450689 0.00095248 3.17477e-05 0.000754549)
(0.00120177 0.000114509 -0.000435127 0.000922709 4.09933e-05 0.000739813)
(0.00116549 0.00013494 -0.000414725 0.000885985 5.06005e-05 0.000722243)
(0.00111754 0.000154525 -0.000388597 0.000840828 5.95096e-05 0.000700729)
(0.00105555 0.000171451 -0.000356103 0.000785646 6.63413e-05 0.000673135)
(0.000977182 0.000183515 -0.000316927 0.000718703 6.98336e-05 0.00063628)
(0.000880219 0.000188138 -0.000271264 0.000638048 6.91113e-05 0.000586358)
(0.000763508 0.000182774 -0.000220171 0.000542768 6.39033e-05 0.000519393)
(0.000626415 0.000165393 -0.000165393 0.000433298 5.49153e-05 0.000433298)
(0.000450694 0.000128475 -0.000104922 0.000323042 3.43312e-05 0.000336196)
(0.000270728 7.80356e-05 -5.07326e-05 0.000214981 1.3594e-05 0.000226023)
(0.000131677 3.28131e-05 -1.64759e-05 0.000116891 3.12147e-06 0.000120983)
(4.95839e-05 8.34119e-06 -3.09945e-06 4.74961e-05 3.64456e-07 4.81853e-05)
(1.3088e-05 1.09852e-06 -2.79622e-07 1.29642e-05 1.73579e-08 1.30071e-05)
(2.15707e-06 6.11519e-08 -8.99055e-09 2.15491e-06 2.57758e-10 2.15556e-06)
(2.86325e-06 1.38954e-08 -6.58713e-10 2.86318e-06 1.5024e-12 2.86319e-06)
(0.00155801 -4.27054e-06 -0.000587174 0.00127564 -2.00038e-06 0.00096824)
(0.0015634 -1.12112e-05 -0.000589101 0.00127925 -5.2078e-06 0.000971573)
(0.00157213 -1.46627e-05 -0.000592321 0.00128522 -6.68915e-06 0.000977004)
(0.001582 -1.48885e-05 -0.000596075 0.00129218 -6.56952e-06 0.000983219)
(0.00159146 -1.31452e-05 -0.000599754 0.001299 -5.46588e-06 0.000989282)
(0.00159966 -1.06141e-05 -0.000602982 0.00130501 -3.97785e-06 0.000994639)