/*--------------------------------*- C++ -*----------------------------------*\
| =========                 |                                                 |
| \\      /  F ield         | OpenFOAM: The Open Source CFD Toolbox           |
|  \\    /   O peration     | Version:  2312                                  |
|   \\  /    A nd           | Website:  www.openfoam.com                      |
|    \\/     M anipulation  |                                                 |
\*---------------------------------------------------------------------------*/
FoamFile
{
    version     2.0;
    format      ascii;
    arch        "LSB;label=32;scalar=64";
    class       volVectorField;
    location    "1919";
    object      U;
}
// * * * * * * * * * * * * * * * * * * * * * * * * * * * * * * * * * * * * * //

dimensions      [0 1 -1 0 0 0 0];

internalField   nonuniform List<vector> 
2304
(
(0.0214851 -6.35287e-05 2.09908e-06)
(0.0216697 -0.000178515 1.59014e-06)
(0.0219486 -0.000267609 9.51262e-07)
(0.0222338 -0.000331818 3.66905e-07)
(0.0224744 -0.000377786 -2.67379e-08)
(0.0226557 -0.00041289 -2.53545e-07)
(0.0227818 -0.000442038 -3.57858e-07)
(0.0228619 -0.0004681 -3.90673e-07)
(0.0229042 -0.000492499 -3.75944e-07)
(0.0229153 -0.000516062 -3.26542e-07)
(0.0229003 -0.000539339 -2.46315e-07)
(0.0228634 -0.000562785 -1.37317e-07)
(0.022809 -0.00058677 -2.55649e-09)
(0.0227414 -0.000611569 1.54452e-07)
(0.0226647 -0.000637354 3.28607e-07)
(0.0225831 -0.000664173 5.13977e-07)
(0.0225003 -0.000691958 7.04406e-07)
(0.0224203 -0.000720509 8.91213e-07)
(0.0223461 -0.000749486 1.06582e-06)
(0.0222805 -0.000778395 1.21614e-06)
(0.0222255 -0.000806568 1.32857e-06)
(0.0221817 -0.000833146 1.38633e-06)
(0.0221485 -0.00085706 1.36857e-06)
(0.0221233 -0.000877005 1.25038e-06)
(0.0221015 -0.000891453 1.00435e-06)
(0.0220757 -0.000898721 6.07483e-07)
(0.022036 -0.000897105 4.58809e-08)
(0.0219696 -0.000884894 -7.10237e-07)
(0.0218614 -0.000860497 -1.66326e-06)
(0.0216944 -0.000822757 -2.79295e-06)
(0.021451 -0.000771169 -4.05373e-06)
(0.0211132 -0.000706063 -5.37451e-06)
(0.0206644 -0.000628656 -6.67619e-06)
(0.0200897 -0.000540976 -7.87223e-06)
(0.0193761 -0.000445303 -8.98298e-06)
(0.0185125 -0.000344846 -9.74416e-06)
(0.0174924 -0.00024479 -9.84729e-06)
(0.0163173 -0.000151913 -9.02383e-06)
(0.0149991 -7.36489e-05 -7.12994e-06)
(0.013561 -1.65812e-05 -4.28317e-06)
(0.0120361 1.57028e-05 -9.90651e-07)
(0.0104616 2.55415e-05 1.59413e-06)
(0.00886923 2.12708e-05 2.63484e-06)
(0.00727962 1.24238e-05 2.3342e-06)
(0.00570106 5.12039e-06 1.44879e-06)
(0.0041306 1.24709e-06 6.16944e-07)
(0.00255207 3.44845e-08 1.54023e-07)
(0.000922549 -2.23593e-08 2.23511e-08)
(0.064931 -0.000173728 1.30122e-05)
(0.0654921 -0.000490062 8.2035e-06)
(0.0663402 -0.000739415 1.71233e-06)
(0.067207 -0.000924005 -4.30447e-06)
(0.0679382 -0.00106023 -8.58859e-06)
(0.0684896 -0.00116655 -1.11877e-05)
(0.0688731 -0.00125552 -1.25627e-05)
(0.0691167 -0.00133469 -1.31796e-05)
(0.0692457 -0.00140796 -1.33102e-05)
(0.0692797 -0.00147769 -1.30857e-05)
(0.069234 -0.00154547 -1.25569e-05)
(0.0691221 -0.00161259 -1.17494e-05)
(0.068957 -0.00168009 -1.0694e-05)
(0.0687515 -0.00174873 -9.42859e-06)
(0.0685184 -0.00181898 -8.00572e-06)
(0.0682702 -0.00189097 -6.48794e-06)
(0.0680187 -0.00196452 -4.94746e-06)
(0.0677752 -0.00203908 -3.47662e-06)
(0.0675495 -0.00211375 -2.18101e-06)
(0.0673499 -0.00218718 -1.19654e-06)
(0.0671821 -0.00225761 -6.85143e-07)
(0.0670483 -0.00232274 -8.42352e-07)
(0.0669466 -0.00237977 -1.90413e-06)
(0.0668692 -0.00242531 -4.14045e-06)
(0.0668017 -0.00245546 -7.83217e-06)
(0.0667222 -0.00246598 -1.32148e-05)
(0.0666005 -0.0024526 -2.04588e-05)
(0.0663975 -0.00241119 -2.97326e-05)
(0.0660675 -0.00233808 -4.09773e-05)
(0.0655592 -0.00223083 -5.3884e-05)
(0.0648189 -0.00208868 -6.78866e-05)
(0.0637926 -0.00191294 -8.21909e-05)
(0.0624297 -0.00170711 -9.59061e-05)
(0.0606849 -0.00147663 -0.000108201)
(0.0585191 -0.00122767 -0.000118484)
(0.0558982 -0.000968467 -0.00012455)
(0.0528019 -0.000711437 -0.000123697)
(0.049233 -0.000472293 -0.000113659)
(0.0452255 -0.00026803 -9.34497e-05)
(0.0408487 -0.000113771 -6.4534e-05)
(0.0362024 -1.8335e-05 -3.20319e-05)
(0.0314014 2.25163e-05 -5.08555e-06)
(0.0265461 2.69095e-05 9.54905e-06)
(0.0217027 1.6446e-05 1.24476e-05)
(0.0168998 5.72729e-06 8.8764e-06)
(0.0121339 1.57139e-07 4.03998e-06)
(0.00737298 -9.11419e-07 9.11334e-07)
(0.00255207 -1.54047e-07 -3.45062e-08)
(0.109721 -0.000267393 2.02361e-05)
(0.110665 -0.000757088 8.16009e-06)
(0.112093 -0.00114958 -8.39632e-06)
(0.113552 -0.00144749 -2.38104e-05)
(0.114784 -0.00167332 -3.49366e-05)
(0.115715 -0.00185291 -4.1817e-05)
(0.116362 -0.00200421 -4.56101e-05)
(0.116774 -0.0021383 -4.74758e-05)
(0.116993 -0.00226122 -4.81158e-05)
(0.117052 -0.00237671 -4.78682e-05)
(0.116976 -0.00248734 -4.68705e-05)
(0.116789 -0.00259518 -4.51907e-05)
(0.116512 -0.00270186 -4.29074e-05)
(0.116166 -0.00280857 -4.01176e-05)
(0.115774 -0.00291603 -3.6955e-05)
(0.115357 -0.00302447 -3.35813e-05)
(0.114933 -0.00313361 -3.01868e-05)
(0.114523 -0.00324264 -2.70139e-05)
(0.114142 -0.00335018 -2.43461e-05)
(0.113804 -0.00345428 -2.25455e-05)
(0.113519 -0.00355228 -2.20467e-05)
(0.11329 -0.00364085 -2.3372e-05)
(0.113114 -0.00371588 -2.71441e-05)
(0.112977 -0.00377251 -3.40644e-05)
(0.112856 -0.00380523 -4.4854e-05)
(0.112713 -0.00380807 -6.011e-05)
(0.112498 -0.00377508 -8.02463e-05)
(0.112145 -0.00370067 -0.000105601)
(0.111578 -0.00358017 -0.000135923)
(0.110711 -0.00341069 -0.000170321)
(0.109454 -0.00319177 -0.000207254)
(0.107717 -0.00292585 -0.000244609)
(0.105414 -0.00261834 -0.000280018)
(0.102471 -0.00227744 -0.000311282)
(0.0988209 -0.00191198 -0.000336715)
(0.094405 -0.00153309 -0.000350995)
(0.0891863 -0.00115704 -0.000347606)
(0.0831646 -0.000804107 -0.000321038)
(0.0763897 -0.000496551 -0.000268726)
(0.0689702 -0.00025546 -0.000193842)
(0.0610716 -9.60252e-05 -0.000108554)
(0.0528925 -1.64148e-05 -3.564e-05)
(0.0446152 6.64223e-06 7.104e-06)
(0.0363658 3.72159e-06 1.99325e-05)
(0.0282049 -3.46282e-06 1.5311e-05)
(0.0201387 -6.06351e-06 6.0632e-06)
(0.0121339 -4.04013e-06 -1.57306e-07)
(0.0041306 -6.16976e-07 -1.24713e-06)
(0.154974 -0.00034063 0.000117607)
(0.156273 -0.000968642 9.90746e-05)
(0.158237 -0.00148166 7.29267e-05)
(0.160248 -0.0018818 4.88978e-05)
(0.161949 -0.00219362 3.186e-05)
(0.163235 -0.00244622 2.15769e-05)
(0.164133 -0.0026604 1.60127e-05)
(0.164706 -0.00284953 1.32188e-05)
(0.165013 -0.00302127 1.20281e-05)
(0.165098 -0.00318054 1.1907e-05)
(0.164997 -0.00333079 1.26645e-05)
(0.164742 -0.00347479 1.42321e-05)
(0.164363 -0.00361465 1.65243e-05)
(0.16389 -0.00375192 1.94216e-05)
(0.163353 -0.00388755 2.27364e-05)
(0.16278 -0.00402182 2.62259e-05)
(0.162198 -0.00415444 2.95866e-05)
(0.161633 -0.00428441 3.24167e-05)
(0.161108 -0.00441009 3.42264e-05)
(0.16064 -0.0045291 3.43768e-05)
(0.160242 -0.00463829 3.20844e-05)
(0.159918 -0.00473369 2.63982e-05)
(0.159662 -0.0048105 1.61805e-05)
(0.159455 -0.0048631 1.52267e-07)
(0.159263 -0.00488524 -2.3007e-05)
(0.159035 -0.00487021 -5.43998e-05)
(0.1587 -0.00481129 -9.48334e-05)
(0.158169 -0.00470239 -0.000144902)
(0.157337 -0.00453879 -0.000204181)
(0.15609 -0.00431788 -0.000271133)
(0.154303 -0.00403983 -0.000343078)
(0.151855 -0.00370805 -0.000416295)
(0.148629 -0.0033293 -0.000486513)
(0.144522 -0.0029137 -0.000549662)
(0.139439 -0.00247128 -0.000602757)
(0.133299 -0.00201367 -0.000636863)
(0.126042 -0.00155739 -0.000640741)
(0.117654 -0.00112287 -0.000604141)
(0.108184 -0.000733432 -0.000520657)
(0.0977555 -0.00041406 -0.000392415)
(0.0865807 -0.000189434 -0.000237405)
(0.0749385 -6.63776e-05 -9.78913e-05)
(0.0631113 -2.08958e-05 -1.11552e-05)
(0.0513144 -1.43264e-05 1.98057e-05)
(0.0396681 -1.68556e-05 1.68549e-05)
(0.0282049 -1.53114e-05 3.46228e-06)
(0.0168998 -8.8766e-06 -5.7276e-06)
(0.00570106 -1.44884e-06 -5.12048e-06)
(0.198123 -0.000389897 0.000351789)
(0.199691 -0.00111429 0.000327345)
(0.202063 -0.00171848 0.000291376)
(0.204496 -0.00220302 0.00025854)
(0.20656 -0.00259079 0.000235426)
(0.208126 -0.00291029 0.000221567)
(0.209223 -0.00318272 0.00021401)
(0.209925 -0.00342241 0.000209998)
(0.210304 -0.00363804 0.000207901)
(0.210414 -0.00383546 0.000207005)
(0.210298 -0.00401885 0.000207081)
(0.209996 -0.0041915 0.000208075)
(0.209545 -0.00435593 0.000209898)
(0.20898 -0.00451396 0.000212403)
(0.208338 -0.00466671 0.000215335)
(0.207654 -0.00481454 0.000218341)
(0.206958 -0.00495716 0.00022097)
(0.206282 -0.00509353 0.000222607)
(0.20565 -0.00522189 0.000222491)
(0.205085 -0.00533973 0.000219627)
(0.204597 -0.00544373 0.000212787)
(0.204192 -0.00552976 0.00020049)
(0.203858 -0.00559285 0.000180976)
(0.20357 -0.00562732 0.000152292)
(0.203285 -0.00562695 0.000112432)
(0.202937 -0.0055851 5.96566e-05)
(0.202441 -0.00549505 -7.35394e-06)
(0.201691 -0.00535097 -8.93061e-05)
(0.200561 -0.00514871 -0.00018555)
(0.198916 -0.00488635 -0.000293825)
(0.196612 -0.00456479 -0.000410201)
(0.193505 -0.00418818 -0.000529165)
(0.189459 -0.00376407 -0.000644201)
(0.184347 -0.00330386 -0.000748792)
(0.178054 -0.00281849 -0.000838342)
(0.170476 -0.00231981 -0.000901654)
(0.161532 -0.00182244 -0.000924597)
(0.151178 -0.00134334 -0.000893131)
(0.13943 -0.000902156 -0.0007958)
(0.126383 -0.000523205 -0.000628327)
(0.112234 -0.000241971 -0.000405285)
(0.0972964 -8.01478e-05 -0.000188439)
(0.0819509 -1.92786e-05 -4.43852e-05)
(0.0665444 -1.31459e-05 1.31445e-05)
(0.0513144 -1.98066e-05 1.43252e-05)
(0.0363658 -1.9933e-05 -3.72244e-06)
(0.0217027 -1.24479e-05 -1.64465e-05)
(0.00727961 -2.33425e-06 -1.24239e-05)
(0.236311 -0.000417849 0.000515002)
(0.238038 -0.00120012 0.000475831)
(0.240658 -0.00186543 0.000416909)
(0.243354 -0.00241215 0.000360803)
(0.245651 -0.00285943 0.000318313)
(0.247403 -0.00323295 0.000289957)
(0.248636 -0.00355273 0.000272115)
(0.24943 -0.003833 0.000261022)
(0.249862 -0.00408292 0.000254217)
(0.249994 -0.00430889 0.000250445)
(0.249876 -0.00451561 0.000249108)
(0.249551 -0.00470677 0.000249863)
(0.249062 -0.00488518 0.00025234)
(0.248449 -0.00505287 0.000256108)
(0.247751 -0.0052111 0.0002606)
(0.247006 -0.00536035 0.000265146)
(0.246249 -0.00550036 0.000268962)
(0.245512 -0.00563014 0.000271076)
(0.244821 -0.00574796 0.000270359)
(0.244196 -0.00585136 0.000265402)
(0.243648 -0.00593704 0.000254539)
(0.243176 -0.00600094 0.000235824)
(0.242765 -0.00603823 0.000207021)
(0.242382 -0.00604337 0.000165734)
(0.241974 -0.00601038 0.000109497)
(0.241466 -0.00593292 3.59896e-05)
(0.240763 -0.0058046 -5.6167e-05)
(0.239748 -0.00562004 -0.000166992)
(0.238289 -0.00537558 -0.000294899)
(0.23624 -0.00506983 -0.000436231)
(0.23345 -0.00470427 -0.000585242)
(0.229771 -0.00428357 -0.000734319)
(0.225059 -0.00381563 -0.000874977)
(0.219178 -0.00331221 -0.000999943)
(0.211998 -0.00278764 -0.00111039)
(0.203407 -0.00225982 -0.00118898)
(0.193306 -0.00174389 -0.00121831)
(0.18162 -0.0012544 -0.00118411)
(0.168315 -0.000806513 -0.00107343)
(0.153414 -0.000417696 -0.000875036)
(0.13702 -0.000129129 -0.000587886)
(0.119368 2.88928e-05 -0.000283444)
(0.100852 6.87556e-05 -6.87577e-05)
(0.0819509 4.43837e-05 1.92767e-05)
(0.0631113 1.11542e-05 2.08942e-05)
(0.0446152 -7.10459e-06 -6.64344e-06)
(0.0265461 -9.54931e-06 -2.69102e-05)
(0.00886923 -2.63489e-06 -2.12711e-05)
(0.268746 -0.000432492 0.00050698)
(0.27056 -0.00124686 0.000456608)
(0.273323 -0.00194959 0.000382027)
(0.276182 -0.00253743 0.000309996)
(0.278635 -0.00302608 0.000254178)
(0.280519 -0.00343813 0.00021571)
(0.281855 -0.00379184 0.000190451)
(0.282723 -0.00410072 0.000173916)
(0.283202 -0.00437386 0.00016308)
(0.28336 -0.00461786 0.000156343)
(0.28325 -0.00483769 0.000152891)
(0.282921 -0.0050373 0.000152223)
(0.282418 -0.00521972 0.000153807)
(0.281786 -0.00538715 0.000157038)
(0.281066 -0.00554099 0.000161145)
(0.280296 -0.0056818 0.000165229)
(0.279514 -0.00580945 0.000168245)
(0.278749 -0.00592298 0.00016892)
(0.278027 -0.00602072 0.000165777)
(0.277364 -0.00610025 0.000156995)
(0.276767 -0.00615832 0.000140431)
(0.27623 -0.0061909 0.0001136)
(0.27573 -0.00619316 7.36681e-05)
(0.275228 -0.00615956 1.76316e-05)
(0.274662 -0.00608405 -5.75381e-05)
(0.273951 -0.00596029 -0.000154617)
(0.272994 -0.0057821 -0.000275323)
(0.27167 -0.0055441 -0.000419541)
(0.269847 -0.00524234 -0.000585122)
(0.267381 -0.00487514 -0.00076733)
(0.264125 -0.00444368 -0.000958826)
(0.259934 -0.00395269 -0.00114986)
(0.25467 -0.00341109 -0.00132923)
(0.248205 -0.00283281 -0.00148485)
(0.240413 -0.00224153 -0.00160681)
(0.231176 -0.00166396 -0.00168391)
(0.220379 -0.00112252 -0.00169907)
(0.207923 -0.000639729 -0.00163137)
(0.193732 -0.000236046 -0.00146105)
(0.177755 7.8312e-05 -0.0011716)
(0.159979 0.000265656 -0.000756546)
(0.140437 0.000327307 -0.000327309)
(0.119368 0.000283442 -2.88953e-05)
(0.0972964 0.000188438 8.01454e-05)
(0.0749385 9.78902e-05 6.63755e-05)
(0.0528925 3.56393e-05 1.64132e-05)
(0.0314014 5.08527e-06 -2.25173e-05)
(0.0104616 -1.59418e-06 -2.55419e-05)
(0.296385 -0.000438809 0.000594178)
(0.298239 -0.00126833 0.000538034)
(0.301076 -0.0019914 0.000455783)
(0.304033 -0.00260393 0.000375985)
(0.306593 -0.00311883 0.000313654)
(0.308578 -0.00355596 0.000270059)
(0.309998 -0.00393173 0.000240625)
(0.310931 -0.00425866 0.000220428)
(0.311456 -0.00454542 0.000206171)
(0.311643 -0.00479857 0.000196145)
(0.311552 -0.00502316 0.000189511)
(0.311232 -0.00522326 0.000185764)
(0.310734 -0.00540205 0.000184342)
(0.310101 -0.00556184 0.000184585)
(0.309379 -0.00570412 0.000185613)
(0.308606 -0.00582952 0.000186382)
(0.307816 -0.00593793 0.000185649)
(0.30704 -0.00602841 0.000181869)
(0.306298 -0.00609924 0.000173227)
(0.305603 -0.00614793 0.000157457)
(0.304955 -0.0061711 0.000131879)
(0.304342 -0.00616462 9.33678e-05)
(0.303735 -0.00612347 3.83397e-05)
(0.303086 -0.0060419 -3.70073e-05)
(0.302329 -0.00591368 -0.000136445)
(0.301379 -0.00573229 -0.000263337)
(0.300132 -0.0054915 -0.000419845)
(0.298472 -0.00518573 -0.000606247)
(0.29627 -0.00481064 -0.000820156)
(0.293391 -0.00436434 -0.00105591)
(0.289701 -0.0038483 -0.00130443)
(0.285065 -0.00326879 -0.00155309)
(0.279355 -0.00263918 -0.0017864)
(0.27245 -0.00198088 -0.00198658)
(0.264237 -0.00132632 -0.0021295)
(0.254596 -0.000709867 -0.00220217)
(0.243406 -0.000163843 -0.00218672)
(0.230541 0.000282472 -0.00206158)
(0.215877 0.000608188 -0.00181151)
(0.199298 0.000818874 -0.00142585)
(0.180711 0.00087267 -0.000872673)
(0.159979 0.000756543 -0.000265658)
(0.13702 0.000587884 0.000129126)
(0.112234 0.000405283 0.000241968)
(0.0865807 0.000237404 0.000189431)
(0.0610716 0.000108554 9.60232e-05)
(0.0362024 3.20316e-05 1.83337e-05)
(0.0120361 9.906e-07 -1.57033e-05)
(0.320306 -0.000438932 0.000793813)
(0.322159 -0.0012713 0.000728735)
(0.325011 -0.00200258 0.000632042)
(0.32801 -0.00262784 0.000536887)
(0.330633 -0.00315755 0.000460852)
(0.332688 -0.00360908 0.000405948)
(0.334174 -0.00399718 0.000367313)
(0.335162 -0.00433334 0.000339501)
(0.335731 -0.00462576 0.000318783)
(0.335952 -0.00488077 0.000303171)
(0.335885 -0.00510342 0.000291632)
(0.335585 -0.0052978 0.000283496)
(0.335103 -0.00546714 0.000278013)
(0.334484 -0.00561381 0.000274312)
(0.333772 -0.0057393 0.000271263)
(0.333007 -0.00584421 0.000267543)
(0.33222 -0.00592837 0.000261591)
(0.331437 -0.00599069 0.000251489)
(0.330676 -0.00602928 0.000235014)
(0.329944 -0.0060414 0.000209405)
(0.329235 -0.00602342 0.00017143)
(0.32853 -0.00597087 0.000117349)
(0.327793 -0.00587844 4.28825e-05)
(0.326971 -0.00574012 -5.64682e-05)
(0.325996 -0.00554954 -0.000185112)
(0.324781 -0.00530001 -0.000346979)
(0.323226 -0.00498535 -0.000544466)
(0.32122 -0.00460015 -0.000777866)
(0.318646 -0.00414052 -0.00104417)
(0.315383 -0.00360585 -0.00133611)
(0.311309 -0.00300041 -0.00164202)
(0.306303 -0.00233566 -0.00194461)
(0.300248 -0.0016338 -0.00222089)
(0.293031 -0.000928382 -0.00244426)
(0.284539 -0.000259056 -0.00258773)
(0.274659 0.000335478 -0.00262899)
(0.263264 0.000822036 -0.00254832)
(0.250206 0.00117634 -0.00232991)
(0.235316 0.00138537 -0.00196825)
(0.218407 0.00146837 -0.00146837)
(0.199298 0.00142585 -0.000818877)
(0.177755 0.00117159 -7.83147e-05)
(0.153413 0.000875034 0.000417693)
(0.126383 0.000628325 0.000523202)
(0.0977555 0.000392414 0.000414057)
(0.0689702 0.000193841 0.000255458)
(0.0408486 6.45337e-05 0.000113769)
(0.013561 4.28312e-06 1.65806e-05)
(0.341249 -0.000435208 0.000953448)
(0.343071 -0.00126255 0.000880088)
(0.345894 -0.00199363 0.000769738)
(0.34889 -0.00262264 0.000659816)
(0.351541 -0.00315794 0.000570295)
(0.353642 -0.00361488 0.000503927)
(0.35518 -0.00400685 0.000455618)
(0.356217 -0.0043445 0.000419468)
(0.356827 -0.00463554 0.000391369)
(0.357084 -0.00488606 0.000369103)
(0.357047 -0.00510099 0.000351474)
(0.356774 -0.0052844 0.00033766)
(0.356315 -0.00543948 0.000326728)
(0.355717 -0.00556854 0.000317588)
(0.355024 -0.005673 0.000308841)
(0.35427 -0.00575331 0.000298854)
(0.353488 -0.00580908 0.00028571)
(0.352697 -0.00583896 0.000267063)
(0.351911 -0.0058407 0.000240222)
(0.351131 -0.00581117 0.000201854)
(0.350346 -0.00574627 0.000148094)
(0.349529 -0.00564112 7.44918e-05)
(0.34864 -0.00548996 -2.40132e-05)
(0.347623 -0.00528651 -0.000152586)
(0.346408 -0.00502426 -0.000316356)
(0.344911 -0.00469649 -0.000519799)
(0.343038 -0.00429742 -0.000765548)
(0.340688 -0.00382264 -0.00105379)
(0.337757 -0.00327001 -0.00138044)
(0.334137 -0.00264274 -0.00173537)
(0.329723 -0.00195175 -0.00210254)
(0.324408 -0.00121832 -0.00245677)
(0.318084 -0.000476689 -0.00276286)
(0.310644 0.000228719 -0.00298233)
(0.301978 0.000853464 -0.00308416)
(0.291969 0.00136242 -0.00304902)
(0.280484 0.00173373 -0.00286448)
(0.267362 0.0019556 -0.00252252)
(0.252386 0.00202615 -0.00202615)
(0.235316 0.00196825 -0.00138538)
(0.215877 0.00181151 -0.000608191)
(0.193732 0.00146105 0.000236043)
(0.168315 0.00107343 0.000806509)
(0.13943 0.000795798 0.000902152)
(0.108184 0.000520656 0.000733429)
(0.0763896 0.000268725 0.000496549)
(0.0452255 9.34494e-05 0.000268028)
(0.014999 7.12988e-06 7.36482e-05)
(0.359817 -0.000428979 0.00110544)
(0.361588 -0.00124595 0.00102427)
(0.36435 -0.00197078 0.00090138)
(0.367311 -0.00259675 0.000777593)
(0.369962 -0.00313039 0.00067507)
(0.372091 -0.00358536 0.000597315)
(0.373669 -0.00397407 0.00053907)
(0.374748 -0.00430654 0.000494037)
(0.375399 -0.0045901 0.000457788)
(0.375692 -0.00483063 0.000427914)
(0.375689 -0.00503289 0.000403082)
(0.375447 -0.00520084 0.00038234)
(0.375016 -0.00533755 0.000364565)
(0.374443 -0.00544518 0.000348441)
(0.373769 -0.00552494 0.000332267)
(0.373028 -0.00557701 0.00031406)
(0.372246 -0.00560065 0.000291494)
(0.37144 -0.00559406 0.000261721)
(0.370618 -0.00555449 0.00022151)
(0.369776 -0.00547825 0.000166863)
(0.368896 -0.00536063 9.31862e-05)
(0.367947 -0.00519624 -4.7487e-06)
(0.366886 -0.00497883 -0.000132805)
(0.365655 -0.00470175 -0.000296812)
(0.364184 -0.00435847 -0.000502618)
(0.362395 -0.00394249 -0.00075524)
(0.3602 -0.00344923 -0.0010571)
(0.357511 -0.00287678 -0.00140754)
(0.354235 -0.00222712 -0.00179983)
(0.350282 -0.00151165 -0.00221894)
(0.345558 -0.000753778 -0.00264037)
(0.339974 1.17303e-05 -0.00302747)
(0.333433 0.000740902 -0.00333266)
(0.32583 0.00138716 -0.00350982)
(0.317055 0.0019122 -0.00353078)
(0.306985 0.00229282 -0.00338707)
(0.295475 0.00252165 -0.00307657)
(0.282348 0.00259626 -0.00259627)
(0.267362 0.00252251 -0.0019556)
(0.250206 0.0023299 -0.00117635)
(0.230541 0.00206158 -0.000282475)
(0.207923 0.00163137 0.000639725)
(0.18162 0.00118411 0.0012544)
(0.151178 0.00089313 0.00134334)
(0.117654 0.00060414 0.00112287)
(0.0831646 0.000321037 0.000804103)
(0.049233 0.000113659 0.000472291)
(0.0163173 9.02377e-06 0.000151912)
(0.376499 -0.000420718 0.00126787)
(0.378204 -0.00122306 0.00117895)
(0.380883 -0.00193698 0.00104346)
(0.383784 -0.00255478 0.000905417)
(0.386413 -0.00308117 0.000789204)
(0.388552 -0.00352835 0.000699191)
(0.39016 -0.00390799 0.000630041)
(0.391276 -0.0042297 0.000575087)
(0.391965 -0.00450062 0.000529577)
(0.392296 -0.00472643 0.000490908)
(0.392328 -0.00491174 0.000457602)
(0.392119 -0.00506033 0.000428551)
(0.391717 -0.00517506 0.000402412)
(0.391169 -0.00525783 0.000377598)
(0.390513 -0.00530951 0.000352042)
(0.389779 -0.00532986 0.000323343)
(0.38899 -0.00531764 0.000288684)
(0.388159 -0.00527044 0.000244614)
(0.387288 -0.00518487 0.000187266)
(0.386366 -0.00505653 0.00011186)
(0.385373 -0.00488002 1.30232e-05)
(0.384273 -0.00464936 -0.000115251)
(0.383021 -0.00435769 -0.000279657)
(0.381559 -0.00399803 -0.000486776)
(0.37982 -0.00356418 -0.000743082)
(0.377731 -0.00305047 -0.00105369)
(0.375214 -0.00245489 -0.00141886)
(0.372191 -0.00178072 -0.00183575)
(0.368582 -0.00103845 -0.00229231)
(0.364309 -0.000254244 -0.0027649)
(0.359294 0.000530998 -0.00321722)
(0.353464 0.00127036 -0.00359965)
(0.346737 0.00192168 -0.00386069)
(0.339016 0.00245168 -0.00395853)
(0.330179 0.00283856 -0.00387122)
(0.32009 0.00306985 -0.00359825)
(0.308589 0.00314702 -0.00314703)
(0.295475 0.00307656 -0.00252165)
(0.280484 0.00286448 -0.00173373)
(0.263264 0.00254832 -0.000822039)
(0.243406 0.00218672 0.00016384)
(0.220379 0.00169907 0.00112252)
(0.193306 0.00121831 0.00174389)
(0.161532 0.000924595 0.00182244)
(0.126042 0.00064074 0.00155738)
(0.0891863 0.000347605 0.00115704)
(0.0528019 0.000123696 0.000711434)
(0.0174924 9.84722e-06 0.000244789)
(0.391668 -0.000410613 0.00143503)
(0.393298 -0.00119461 0.00133848)
(0.395877 -0.00189378 0.00119021)
(0.398699 -0.00249937 0.00103738)
(0.401289 -0.00301423 0.000906607)
(0.403424 -0.00344908 0.000803294)
(0.40505 -0.00381497 0.000722133)
(0.406197 -0.00412131 0.00065612)
(0.406923 -0.00437518 0.000600171)
(0.407289 -0.00458217 0.00055146)
(0.407357 -0.00474673 0.000508331)
(0.407179 -0.00487244 0.000469487)
(0.406806 -0.00496183 0.000433314)
(0.40628 -0.00501644 0.000397893)
(0.405636 -0.00503666 0.000360714)
(0.404902 -0.00502167 0.000318875)
(0.404095 -0.0049696 0.000268964)
(0.403225 -0.00487728 0.000206802)
(0.402288 -0.00474053 0.00012779)
(0.401269 -0.00455414 2.62867e-05)
(0.400144 -0.00431188 -0.00010385)
(0.398875 -0.00400714 -0.000269503)
(0.397415 -0.00363236 -0.000478491)
(0.395708 -0.00318054 -0.000737943)
(0.393692 -0.00264669 -0.00105413)
(0.391301 -0.00202658 -0.0014304)
(0.388463 -0.00132324 -0.00186319)
(0.385111 -0.000549877 -0.00234545)
(0.381172 0.00026636 -0.00285812)
(0.376588 0.00107795 -0.00335804)
(0.371294 0.00183029 -0.00379992)
(0.36523 0.00247614 -0.00413229)
(0.358336 0.00298955 -0.00430683)
(0.350526 0.00336104 -0.00429239)
(0.341659 0.00359072 -0.00408083)
(0.331573 0.0036699 -0.00366991)
(0.32009 0.00359825 -0.00306985)
(0.306985 0.00338707 -0.00229282)
(0.291969 0.00304902 -0.00136243)
(0.274659 0.00262899 -0.000335481)
(0.254596 0.00220216 0.000709864)
(0.231176 0.00168391 0.00166396)
(0.203407 0.00118897 0.00225981)
(0.170476 0.000901652 0.0023198)
(0.133299 0.000636862 0.00201366)
(0.094405 0.000350994 0.00153309)
(0.0558982 0.000124549 0.000968464)
(0.0185125 9.7441e-06 0.000344844)
(0.40561 -0.000398723 0.00160429)
(0.407158 -0.00116084 0.00150022)
(0.409626 -0.00184187 0.00133914)
(0.412355 -0.00243192 0.00117105)
(0.414891 -0.00293188 0.00102487)
(0.417009 -0.00335088 0.00090717)
(0.418645 -0.00369931 0.000812834)
(0.419816 -0.0039865 0.000734577)
(0.420573 -0.00421957 0.000666972)
(0.420973 -0.00440413 0.000606933)
(0.421073 -0.0045445 0.000552577)
(0.420925 -0.004644 0.000502362)
(0.420576 -0.00470476 0.000454333)
(0.420065 -0.00472784 0.000406167)
(0.419425 -0.00471301 0.000354808)
(0.41868 -0.0046587 0.00029675)
(0.417843 -0.00456232 0.00022787)
(0.416918 -0.00441975 0.000143129)
(0.415897 -0.00422593 3.71762e-05)
(0.414763 -0.00397468 -9.6574e-05)
(0.413487 -0.00365875 -0.000265257)
(0.41203 -0.00327103 -0.000476929)
(0.410348 -0.00280352 -0.000740636)
(0.408386 -0.00224971 -0.001062)
(0.406086 -0.00160694 -0.0014458)
(0.40339 -0.000873539 -0.00189262)
(0.400232 -6.43091e-05 -0.00239626)
(0.396551 0.000788262 -0.00293906)
(0.392291 0.00163002 -0.00348634)
(0.387405 0.00239625 -0.00397391)
(0.381855 0.0030348 -0.00434109)
(0.375586 0.00352578 -0.00456776)
(0.368533 0.00387347 -0.00463459)
(0.360626 0.00408371 -0.00450363)
(0.351738 0.00414828 -0.00414828)
(0.341659 0.00408083 -0.00359072)
(0.330179 0.00387122 -0.00283856)
(0.317055 0.00353077 -0.0019122)
(0.301978 0.00308415 -0.000853466)
(0.284539 0.00258773 0.000259053)
(0.264237 0.0021295 0.00132632)
(0.240413 0.00160681 0.00224152)
(0.211998 0.00111038 0.00278763)
(0.178054 0.000838341 0.00281849)
(0.139439 0.000602756 0.00247127)
(0.0988209 0.000336715 0.00191198)
(0.0585191 0.000118484 0.00122767)
(0.0193761 8.98293e-06 0.000445302)
(0.418547 -0.000385017 0.00177572)
(0.42001 -0.00112173 0.00166427)
(0.42236 -0.00178137 0.00149035)
(0.424985 -0.00235296 0.00130655)
(0.427454 -0.00283529 0.00114401)
(0.429544 -0.00323569 0.00101068)
(0.431179 -0.00356379 0.000901838)
(0.432367 -0.00382876 0.000809994)
(0.433149 -0.00403788 0.00072938)
(0.433578 -0.00419681 0.000656604)
(0.433706 -0.00430977 0.000589483)
(0.433582 -0.00437979 0.000526145)
(0.43325 -0.00440854 0.0004642)
(0.432747 -0.00439648 0.000400824)
(0.432101 -0.00434262 0.000332278)
(0.431331 -0.00424449 0.000254349)
(0.430448 -0.00409866 0.000162118)
(0.42945 -0.00389989 4.95965e-05)
(0.428327 -0.00364208 -8.94617e-05)
(0.427058 -0.00331787 -0.000263015)
(0.425612 -0.00291907 -0.000479489)
(0.423952 -0.00243878 -0.000747503)
(0.422034 -0.00186857 -0.00107553)
(0.419807 -0.00120262 -0.00146637)
(0.417219 -0.000443326 -0.00192428)
(0.41421 0.000399675 -0.00245116)
(0.410733 0.00128329 -0.00302128)
(0.40673 0.00214605 -0.00360253)
(0.40218 0.0029068 -0.00410297)
(0.397037 0.00352548 -0.00449363)
(0.391264 0.00399029 -0.00474999)
(0.384813 0.00430852 -0.00485867)
(0.377614 0.00449556 -0.00480919)
(0.369586 0.00457164 -0.00457164)
(0.360626 0.00450363 -0.00408371)
(0.350526 0.00429239 -0.00336104)
(0.339016 0.00395853 -0.00245168)
(0.32583 0.00350982 -0.00138717)
(0.310644 0.00298233 -0.000228721)
(0.293031 0.00244426 0.000928379)
(0.27245 0.00198658 0.00198088)
(0.248205 0.00148485 0.00283281)
(0.219178 0.000999942 0.0033122)
(0.184347 0.000748791 0.00330385)
(0.144522 0.000549662 0.00291369)
(0.102471 0.000311281 0.00227744)
(0.0606849 0.000108201 0.00147663)
(0.0200897 7.87218e-06 0.000540975)
(0.430651 -0.000369457 0.00194851)
(0.432029 -0.00107718 0.00182989)
(0.434256 -0.00171222 0.00164319)
(0.43677 -0.00226261 0.00144324)
(0.439162 -0.00272495 0.00126334)
(0.441212 -0.00310457 0.00111302)
(0.442837 -0.00341007 0.000988139)
(0.444033 -0.00365037 0.000881159)
(0.444834 -0.00383283 0.000785986)
(0.445284 -0.00396322 0.000698865)
(0.445433 -0.00404567 0.00061722)
(0.445326 -0.0040829 0.00053874)
(0.445002 -0.00407603 0.000460471)
(0.444495 -0.00402481 0.000378975)
(0.443828 -0.00392738 0.000289701)
(0.443018 -0.00378021 0.000187647)
(0.44207 -0.00357883 6.69857e-05)
(0.440981 -0.00331667 -7.9561e-05)
(0.439735 -0.00298651 -0.000259573)
(0.438311 -0.0025801 -0.000482855)
(0.436678 -0.00208842 -0.000757353)
(0.434799 -0.00150529 -0.00109066)
(0.432634 -0.00082114 -0.00149)
(0.430133 -3.55897e-05 -0.00196126)
(0.427247 0.000832232 -0.00250376)
(0.423923 0.0017367 -0.00311167)
(0.420139 0.00259432 -0.00369529)
(0.415861 0.00333397 -0.00420033)
(0.411056 0.0039161 -0.00459131)
(0.405695 0.00434172 -0.00485851)
(0.39973 0.00463153 -0.00500487)
(0.393111 0.00480126 -0.00501373)
(0.385769 0.00485759 -0.00485759)
(0.377614 0.00480919 -0.00449556)
(0.368533 0.00463459 -0.00387347)
(0.358336 0.00430683 -0.00298955)
(0.346737 0.00386069 -0.00192168)
(0.333433 0.00333266 -0.000740904)
(0.318084 0.00276286 0.000476686)
(0.300248 0.00222089 0.0016338)
(0.279355 0.0017864 0.00263917)
(0.25467 0.00132923 0.00341109)
(0.225059 0.000874977 0.00381562)
(0.189459 0.000644201 0.00376407)
(0.148629 0.000486512 0.0033293)
(0.105414 0.000280017 0.00261834)
(0.0624297 9.59059e-05 0.00170711)
(0.0206644 6.67615e-06 0.000628655)
(0.44206 -0.000352035 0.00212138)
(0.443352 -0.00102717 0.00199585)
(0.445455 -0.00163438 0.00179656)
(0.447851 -0.00216085 0.00158011)
(0.450158 -0.00260103 0.00138189)
(0.452157 -0.00295801 0.00121312)
(0.453762 -0.00323906 0.0010705)
(0.454957 -0.00345264 0.000946611)
(0.455767 -0.00360607 0.000835071)
(0.45623 -0.00370518 0.000731722)
(0.456391 -0.003754 0.000633486)
(0.456289 -0.00375493 0.000537488)
(0.455961 -0.00370843 0.000440071)
(0.455435 -0.00361347 0.000337065)
(0.454732 -0.00346713 0.000222937)
(0.453863 -0.00326457 9.17233e-05)
(0.45283 -0.00300021 -6.37714e-05)
(0.451628 -0.00266602 -0.000252799)
(0.450239 -0.00225419 -0.000483506)
(0.448642 -0.00175559 -0.000766133)
(0.446806 -0.00115953 -0.00110618)
(0.444696 -0.000460693 -0.00151251)
(0.442267 0.000344473 -0.00200035)
(0.43948 0.00122949 -0.00256517)
(0.436293 0.0021364 -0.00318411)
(0.432688 0.00297071 -0.00376469)
(0.428634 0.00367015 -0.00426193)
(0.424115 0.00420593 -0.00463987)
(0.419091 0.00459505 -0.00492038)
(0.413528 0.0048588 -0.00509629)
(0.407384 0.00501351 -0.00515249)
(0.400603 0.00506535 -0.00506535)
(0.393111 0.00501373 -0.00480126)
(0.384813 0.00485867 -0.00430852)
(0.375586 0.00456776 -0.00352578)
(0.36523 0.00413229 -0.00247614)
(0.353464 0.00359966 -0.00127036)
(0.339974 0.00302747 -1.17322e-05)
(0.324408 0.00245678 0.00121832)
(0.306303 0.00194461 0.00233565)
(0.285065 0.00155309 0.00326879)
(0.259934 0.00114986 0.00395269)
(0.229771 0.00073432 0.00428356)
(0.193505 0.000529165 0.00418818)
(0.151855 0.000416295 0.00370804)
(0.107717 0.000244609 0.00292585)
(0.0637926 8.21909e-05 0.00191294)
(0.0211132 5.37447e-06 0.000706062)
(0.452882 -0.000332784 0.00229308)
(0.454089 -0.000971776 0.00216099)
(0.456067 -0.00154789 0.00194939)
(0.458342 -0.00204768 0.00171624)
(0.460555 -0.0024635 0.00149879)
(0.462495 -0.00279609 0.00131005)
(0.464067 -0.00305108 0.00114783)
(0.46525 -0.00323612 0.001005)
(0.466058 -0.00335828 0.000874961)
(0.466523 -0.00342337 0.000753148)
(0.466683 -0.00343528 0.000635881)
(0.466573 -0.00339602 0.000519576)
(0.466225 -0.00330528 0.000399696)